Al                                      
  0.99748016963348896     
     2.863400    0.000000    0.000000
     1.431700    2.479777    0.000000
     1.431700    0.826592    2.337956
  Al/17880443556
               1
Direct
  0.000000  0.000000  0.000000

   28   28   28
 -.14423     -.38675E-01 0.26658     0.73643      1.3130      1.9235      2.4937      2.9617      3.2889      3.4669    
  3.5182      3.4880      3.4227      3.3638      3.3406      3.3638      3.4227      3.4880      3.5182      3.4669    
  3.2889      2.9617      2.4937      1.9235      1.3130     0.73643     0.26658     -.38675E-01 -.38675E-01 0.16678    
 0.55439      1.0773      1.6694      2.2564      2.7696      3.1590      3.4013      3.5046      3.5049      3.4496    
  3.3820      3.3380      3.3381      3.3820      3.4496      3.5049      3.5046      3.4013      3.1590      2.7696    
  2.2564      1.6694      1.0773     0.55436     0.16673     -.38703E-01 0.26658     0.55439     0.99501      1.5322    
  2.0965      2.6181      3.0395      3.3262      3.4728      3.5036      3.4622      3.3916      3.3309      3.3074    
  3.3309      3.3916      3.4622      3.5036      3.4728      3.3262      3.0395      2.6181      2.0965      1.5322    
 0.99499     0.55437     0.26656     0.16673     0.73643      1.0773      1.5322      2.0401      2.5347      2.9559    
  3.2617      3.4359      3.4912      3.4634      3.3938      3.3207      3.2755      3.2755      3.3207      3.3938    
  3.4635      3.4912      3.4359      3.2617      2.9559      2.5347      2.0401      1.5322      1.0773     0.73645    
 0.55437     0.55436      1.3130      1.6694      2.0965      2.5347      2.9260      3.2247      3.4072      3.4761    
  3.4585      3.3911      3.3096      3.2462      3.2225      3.2462      3.3096      3.3911      3.4585      3.4761    
  3.4072      3.2247      2.9260      2.5347      2.0965      1.6694      1.3130      1.0773     0.99499      1.0773    
  1.9235      2.2564      2.6181      2.9559      3.2247      3.3964      3.4663      3.4527      3.3867      3.2999    
  3.2224      3.1774      3.1775      3.2224      3.2999      3.3867      3.4527      3.4663      3.3964      3.2247    
  2.9559      2.6181      2.2564      1.9235      1.6694      1.5322      1.5322      1.6694      2.4937      2.7696    
  3.0395      3.2617      3.4072      3.4663      3.4503      3.3837      3.2932      3.2058      3.1439      3.1216    
  3.1439      3.2058      3.2932      3.3837      3.4503      3.4663      3.4072      3.2617      3.0395      2.7696    
  2.4937      2.2564      2.0965      2.0401      2.0965      2.2564      2.9617      3.1590      3.3262      3.4359    
  3.4761      3.4527      3.3837      3.2908      3.1974      3.1235      3.0831      3.0831      3.1235      3.1974    
  3.2908      3.3837      3.4527      3.4761      3.4359      3.3262      3.1590      2.9617      2.7696      2.6181    
  2.5347      2.5347      2.6181      2.7696      3.2889      3.4013      3.4728      3.4912      3.4585      3.3867    
  3.2932      3.1974      3.1167      3.0635      3.0451      3.0635      3.1167      3.1974      3.2932      3.3867    
  3.4585      3.4912      3.4728      3.4013      3.2889      3.1590      3.0395      2.9559      2.9260      2.9559    
  3.0395      3.1590      3.4669      3.5046      3.5036      3.4634      3.3911      3.2999      3.2058      3.1235    
  3.0635      3.0322      3.0322      3.0635      3.1235      3.2058      3.2999      3.3911      3.4635      3.5036    
  3.5046      3.4669      3.4013      3.3262      3.2617      3.2247      3.2247      3.2617      3.3262      3.4013    
  3.5182      3.5049      3.4622      3.3938      3.3096      3.2224      3.1439      3.0831      3.0451      3.0322    
  3.0451      3.0831      3.1439      3.2224      3.3096      3.3938      3.4622      3.5049      3.5182      3.5046    
  3.4728      3.4359      3.4072      3.3964      3.4072      3.4359      3.4728      3.5046      3.4880      3.4496    
  3.3916      3.3207      3.2462      3.1774      3.1216      3.0831      3.0635      3.0635      3.0831      3.1216    
  3.1774      3.2462      3.3207      3.3916      3.4496      3.4880      3.5049      3.5036      3.4912      3.4761    
  3.4663      3.4663      3.4761      3.4912      3.5036      3.5049      3.4227      3.3820      3.3309      3.2755    
  3.2225      3.1775      3.1439      3.1235      3.1167      3.1235      3.1439      3.1774      3.2225      3.2755    
  3.3309      3.3820      3.4227      3.4496      3.4622      3.4635      3.4585      3.4527      3.4503      3.4527    
  3.4585      3.4635      3.4622      3.4496      3.3638      3.3380      3.3074      3.2755      3.2462      3.2224    
  3.2058      3.1974      3.1974      3.2058      3.2224      3.2462      3.2755      3.3074      3.3380      3.3638    
  3.3820      3.3916      3.3938      3.3911      3.3867      3.3837      3.3837      3.3867      3.3911      3.3938    
  3.3916      3.3820      3.3406      3.3381      3.3309      3.3207      3.3096      3.2999      3.2932      3.2908    
  3.2932      3.2999      3.3096      3.3207      3.3309      3.3380      3.3406      3.3380      3.3309      3.3207    
  3.3096      3.2999      3.2932      3.2908      3.2932      3.2999      3.3096      3.3207      3.3309      3.3381    
  3.3638      3.3820      3.3916      3.3938      3.3911      3.3867      3.3837      3.3837      3.3867      3.3911    
  3.3938      3.3916      3.3820      3.3638      3.3380      3.3074      3.2755      3.2462      3.2224      3.2058    
  3.1974      3.1974      3.2058      3.2224      3.2462      3.2755      3.3074      3.3380      3.4227      3.4496    
  3.4622      3.4635      3.4585      3.4527      3.4503      3.4527      3.4585      3.4635      3.4622      3.4496    
  3.4227      3.3820      3.3309      3.2755      3.2225      3.1774      3.1439      3.1235      3.1167      3.1235    
  3.1439      3.1775      3.2225      3.2755      3.3309      3.3820      3.4880      3.5049      3.5036      3.4912    
  3.4761      3.4663      3.4663      3.4761      3.4912      3.5036      3.5049      3.4880      3.4496      3.3916    
  3.3207      3.2462      3.1774      3.1216      3.0831      3.0635      3.0635      3.0831      3.1216      3.1774    
  3.2462      3.3207      3.3916      3.4496      3.5182      3.5046      3.4728      3.4359      3.4072      3.3964    
  3.4072      3.4359      3.4728      3.5046      3.5182      3.5049      3.4622      3.3938      3.3096      3.2224    
  3.1439      3.0831      3.0451      3.0322      3.0451      3.0831      3.1439      3.2224      3.3096      3.3938    
  3.4622      3.5049      3.4669      3.4013      3.3262      3.2617      3.2247      3.2247      3.2617      3.3262    
  3.4013      3.4669      3.5046      3.5036      3.4635      3.3911      3.2999      3.2058      3.1235      3.0635    
  3.0322      3.0322      3.0635      3.1235      3.2058      3.2999      3.3911      3.4634      3.5036      3.5046    
  3.2889      3.1590      3.0395      2.9559      2.9260      2.9559      3.0395      3.1590      3.2889      3.4013    
  3.4728      3.4912      3.4585      3.3867      3.2932      3.1974      3.1167      3.0635      3.0451      3.0635    
  3.1167      3.1974      3.2932      3.3867      3.4585      3.4912      3.4728      3.4013      2.9617      2.7696    
  2.6181      2.5347      2.5347      2.6181      2.7696      2.9617      3.1590      3.3262      3.4359      3.4761    
  3.4527      3.3837      3.2908      3.1974      3.1235      3.0831      3.0831      3.1235      3.1974      3.2908    
  3.3837      3.4527      3.4761      3.4359      3.3262      3.1590      2.4937      2.2564      2.0965      2.0401    
  2.0965      2.2564      2.4937      2.7696      3.0395      3.2617      3.4072      3.4663      3.4503      3.3837    
  3.2932      3.2058      3.1439      3.1216      3.1439      3.2058      3.2932      3.3837      3.4503      3.4663    
  3.4072      3.2617      3.0395      2.7696      1.9235      1.6694      1.5322      1.5322      1.6694      1.9235    
  2.2564      2.6181      2.9559      3.2247      3.3964      3.4663      3.4527      3.3867      3.2999      3.2224    
  3.1775      3.1774      3.2224      3.2999      3.3867      3.4527      3.4663      3.3964      3.2247      2.9559    
  2.6181      2.2564      1.3130      1.0773     0.99499      1.0773      1.3130      1.6694      2.0965      2.5347    
  2.9260      3.2247      3.4072      3.4761      3.4585      3.3911      3.3096      3.2462      3.2225      3.2462    
  3.3096      3.3911      3.4585      3.4761      3.4072      3.2247      2.9260      2.5347      2.0965      1.6694    
 0.73643     0.55436     0.55437     0.73645      1.0773      1.5322      2.0401      2.5347      2.9559      3.2617    
  3.4359      3.4912      3.4635      3.3938      3.3207      3.2755      3.2755      3.3207      3.3938      3.4634    
  3.4912      3.4359      3.2617      2.9559      2.5347      2.0401      1.5322      1.0773     0.26658     0.16673    
 0.26656     0.55437     0.99499      1.5322      2.0965      2.6181      3.0395      3.3262      3.4728      3.5036    
  3.4622      3.3916      3.3309      3.3074      3.3309      3.3916      3.4622      3.5036      3.4728      3.3262    
  3.0395      2.6181      2.0965      1.5322     0.99501     0.55439     -.38675E-01 -.38703E-01 0.16673     0.55436    
  1.0773      1.6694      2.2564      2.7696      3.1590      3.4013      3.5046      3.5049      3.4496      3.3820    
  3.3381      3.3380      3.3820      3.4496      3.5049      3.5046      3.4013      3.1590      2.7696      2.2564    
  1.6694      1.0773     0.55439     0.16678     -.38675E-01 0.16678     0.55439      1.0773      1.6694      2.2564    
  2.7696      3.1590      3.4013      3.5046      3.5049      3.4496      3.3820      3.3380      3.3381      3.3820    
  3.4496      3.5049      3.5046      3.4013      3.1590      2.7696      2.2564      1.6694      1.0773     0.55436    
 0.16673     -.38703E-01 0.16678     0.46222     0.91474      1.4669      2.0478      2.5863      3.0236      3.3239    
  3.4810      3.5187      3.4810      3.4122      3.3520      3.3286      3.3520      3.4122      3.4810      3.5187    
  3.4810      3.3239      3.0236      2.5863      2.0479      1.4669     0.91470     0.46215     0.16672     0.64292E-01
 0.55439     0.91474      1.3961      1.9349      2.4618      2.9142      3.2479      3.4445      3.5153      3.4967    
  3.4316      3.3602      3.3154      3.3154      3.3602      3.4316      3.4967      3.5153      3.4444      3.2479    
  2.9142      2.4618      1.9349      1.3961     0.91470     0.55436     0.36201     0.36202      1.0773      1.4669    
  1.9349      2.4177      2.8535      3.1930      3.4094      3.5032      3.5009      3.4417      3.3636      3.3009    
  3.2772      3.3009      3.3636      3.4417      3.5009      3.5032      3.4094      3.1930      2.8535      2.4177    
  1.9349      1.4669      1.0773     0.81996     0.73010     0.81996      1.6694      2.0478      2.4618      2.8535    
  3.1730      3.3883      3.4914      3.4993      3.4454      3.3637      3.2875      3.2424      3.2424      3.2875    
  3.3637      3.4453      3.4993      3.4914      3.3883      3.1730      2.8535      2.4618      2.0479      1.6694    
  1.3814      1.2259      1.2259      1.3814      2.2564      2.5863      2.9142      3.1930      3.3883      3.4866    
  3.4970      3.4458      3.3626      3.2770      3.2146      3.1918      3.2146      3.2770      3.3626      3.4458    
  3.4970      3.4866      3.3883      3.1930      2.9142      2.5863      2.2564      1.9748      1.7859      1.7194    
  1.7859      1.9749      2.7696      3.0236      3.2479      3.4094      3.4914      3.4970      3.4457      3.3615    
  3.2704      3.1956      3.1540      3.1540      3.1956      3.2704      3.3615      3.4457      3.4970      3.4914    
  3.4094      3.2479      3.0236      2.7696      2.5276      2.3386      2.2352      2.2352      2.3386      2.5276    
  3.1590      3.3239      3.4445      3.5032      3.4993      3.4458      3.3615      3.2682      3.1862      3.1309    
  3.1115      3.1309      3.1862      3.2682      3.3615      3.4458      3.4993      3.5032      3.4444      3.3239    
  3.1590      2.9792      2.8184      2.7077      2.6682      2.7077      2.8184      2.9791      3.4013      3.4810    
  3.5153      3.5009      3.4454      3.3626      3.2704      3.1862      3.1232      3.0898      3.0898      3.1232    
  3.1862      3.2704      3.3626      3.4454      3.5009      3.5153      3.4810      3.4013      3.2921      3.1775    
  3.0831      3.0300      3.0300      3.0831      3.1775      3.2921      3.5046      3.5187      3.4967      3.4417    
  3.3637      3.2770      3.1956      3.1309      3.0898      3.0757      3.0898      3.1309      3.1956      3.2770    
  3.3637      3.4417      3.4967      3.5187      3.5046      3.4590      3.3949      3.3304      3.2832      3.2660    
  3.2832      3.3305      3.3949      3.4590      3.5049      3.4810      3.4316      3.3636      3.2875      3.2146    
  3.1540      3.1115      3.0898      3.0898      3.1115      3.1540      3.2146      3.2875      3.3636      3.4316    
  3.4810      3.5049      3.5029      3.4804      3.4472      3.4157      3.3967      3.3967      3.4157      3.4472    
  3.4804      3.5029      3.4496      3.4122      3.3602      3.3009      3.2424      3.1918      3.1540      3.1309    
  3.1232      3.1309      3.1540      3.1919      3.2424      3.3008      3.3602      3.4122      3.4496      3.4687    
  3.4701      3.4588      3.4423      3.4285      3.4232      3.4285      3.4423      3.4587      3.4700      3.4686    
  3.3820      3.3520      3.3154      3.2772      3.2424      3.2146      3.1956      3.1862      3.1862      3.1956    
  3.2146      3.2424      3.2772      3.3154      3.3520      3.3820      3.4014      3.4091      3.4067      3.3981    
  3.3884      3.3822      3.3822      3.3884      3.3981      3.4067      3.4091      3.4014      3.3380      3.3286    
  3.3154      3.3009      3.2875      3.2770      3.2704      3.2682      3.2704      3.2770      3.2875      3.3008    
  3.3154      3.3286      3.3380      3.3418      3.3392      3.3313      3.3203      3.3092      3.3010      3.2980    
  3.3010      3.3092      3.3203      3.3313      3.3393      3.3418      3.3381      3.3520      3.3602      3.3636    
  3.3637      3.3626      3.3615      3.3615      3.3626      3.3637      3.3636      3.3602      3.3520      3.3380    
  3.3185      3.2947      3.2691      3.2444      3.2233      3.2080      3.1999      3.1999      3.2080      3.2233    
  3.2444      3.2691      3.2947      3.3185      3.3820      3.4122      3.4316      3.4417      3.4453      3.4458    
  3.4457      3.4458      3.4454      3.4417      3.4316      3.4122      3.3820      3.3418      3.2947      3.2454    
  3.1988      3.1592      3.1295      3.1113      3.1052      3.1113      3.1295      3.1592      3.1988      3.2454    
  3.2947      3.3418      3.4496      3.4810      3.4967      3.5009      3.4993      3.4970      3.4970      3.4993    
  3.5009      3.4967      3.4810      3.4496      3.4014      3.3392      3.2691      3.1988      3.1356      3.0852    
  3.0507      3.0333      3.0333      3.0507      3.0852      3.1356      3.1988      3.2691      3.3392      3.4014    
  3.5049      3.5187      3.5153      3.5032      3.4914      3.4866      3.4914      3.5032      3.5153      3.5187    
  3.5049      3.4687      3.4091      3.3313      3.2444      3.1592      3.0852      3.0292      2.9947      2.9831    
  2.9947      3.0292      3.0852      3.1592      3.2444      3.3313      3.4091      3.4686      3.5046      3.4810    
  3.4444      3.4094      3.3883      3.3883      3.4094      3.4444      3.4810      3.5046      3.5029      3.4701    
  3.4067      3.3203      3.2233      3.1295      3.0507      2.9947      2.9659      2.9659      2.9947      3.0507    
  3.1295      3.2233      3.3203      3.4067      3.4701      3.5029      3.4013      3.3239      3.2479      3.1930    
  3.1730      3.1930      3.2479      3.3239      3.4013      3.4590      3.4804      3.4588      3.3981      3.3092    
  3.2080      3.1113      3.0333      2.9831      2.9659      2.9831      3.0333      3.1113      3.2080      3.3092    
  3.3981      3.4587      3.4804      3.4590      3.1590      3.0236      2.9142      2.8535      2.8535      2.9142    
  3.0236      3.1590      3.2921      3.3949      3.4472      3.4423      3.3884      3.3010      3.1999      3.1052    
  3.0333      2.9947      2.9947      3.0333      3.1052      3.1999      3.3010      3.3884      3.4423      3.4472    
  3.3949      3.2921      2.7696      2.5863      2.4618      2.4177      2.4618      2.5863      2.7696      2.9792    
  3.1775      3.3304      3.4157      3.4285      3.3822      3.2980      3.1999      3.1113      3.0507      3.0292    
  3.0507      3.1113      3.1999      3.2980      3.3822      3.4285      3.4157      3.3305      3.1775      2.9791    
  2.2564      2.0479      1.9349      1.9349      2.0479      2.2564      2.5276      2.8184      3.0831      3.2832    
  3.3967      3.4232      3.3822      3.3010      3.2080      3.1295      3.0852      3.0852      3.1295      3.2080    
  3.3010      3.3822      3.4232      3.3967      3.2832      3.0831      2.8184      2.5276      1.6694      1.4669    
  1.3961      1.4669      1.6694      1.9748      2.3386      2.7077      3.0300      3.2660      3.3967      3.4285    
  3.3884      3.3092      3.2233      3.1592      3.1356      3.1592      3.2233      3.3092      3.3884      3.4285    
  3.3967      3.2660      3.0300      2.7077      2.3386      1.9749      1.0773     0.91470     0.91470      1.0773    
  1.3814      1.7859      2.2352      2.6682      3.0300      3.2832      3.4157      3.4423      3.3981      3.3203    
  3.2444      3.1988      3.1988      3.2444      3.3203      3.3981      3.4423      3.4157      3.2832      3.0300    
  2.6682      2.2352      1.7859      1.3814     0.55436     0.46215     0.55436     0.81996      1.2259      1.7194    
  2.2352      2.7077      3.0831      3.3305      3.4472      3.4587      3.4067      3.3313      3.2691      3.2454    
  3.2691      3.3313      3.4067      3.4587      3.4472      3.3305      3.0831      2.7077      2.2352      1.7194    
  1.2259     0.81996     0.16673     0.16672     0.36201     0.73010      1.2259      1.7859      2.3386      2.8184    
  3.1775      3.3949      3.4804      3.4700      3.4091      3.3393      3.2947      3.2947      3.3392      3.4091    
  3.4701      3.4804      3.3949      3.1775      2.8184      2.3386      1.7859      1.2259     0.73010     0.36202    
 -.38703E-01 0.64292E-01 0.36202     0.81996      1.3814      1.9749      2.5276      2.9791      3.2921      3.4590    
  3.5029      3.4686      3.4014      3.3418      3.3185      3.3418      3.4014      3.4686      3.5029      3.4590    
  3.2921      2.9791      2.5276      1.9749      1.3814     0.81996     0.36202     0.64293E-01 0.26658     0.55439    
 0.99501      1.5322      2.0965      2.6181      3.0395      3.3262      3.4728      3.5036      3.4622      3.3916    
  3.3309      3.3074      3.3309      3.3916      3.4622      3.5036      3.4728      3.3262      3.0395      2.6181    
  2.0965      1.5322     0.99499     0.55437     0.26656     0.16673     0.55439     0.91474      1.3961      1.9349    
  2.4618      2.9142      3.2479      3.4445      3.5153      3.4967      3.4316      3.3602      3.3154      3.3154    
  3.3602      3.4316      3.4967      3.5153      3.4444      3.2479      2.9142      2.4618      1.9349      1.3961    
 0.91470     0.55436     0.36201     0.36202     0.99501      1.3961      1.8782      2.3765      2.8276      3.1812    
  3.4094      3.5120      3.5151      3.4588      3.3819      3.3195      3.2958      3.3195      3.3819      3.4588    
  3.5151      3.5120      3.4094      3.1812      2.8276      2.3765      1.8782      1.3961     0.99499     0.73009    
 0.63761     0.73010      1.5322      1.9349      2.3765      2.7967      3.1432      3.3817      3.5027      3.5224    
  3.4750      3.3964      3.3210      3.2758      3.2759      3.3210      3.3964      3.4750      3.5224      3.5027    
  3.3817      3.1432      2.7967      2.3765      1.9349      1.5322      1.2259      1.0607      1.0607      1.2259    
  2.0965      2.4618      2.8276      3.1432      3.3713      3.4956      3.5239      3.4833      3.4052      3.3211    
  3.2586      3.2356      3.2586      3.3211      3.4052      3.4833      3.5239      3.4956      3.3713      3.1432    
  2.8276      2.4618      2.0965      1.7859      1.5777      1.5045      1.5777      1.7859      2.6181      2.9142    
  3.1812      3.3817      3.4956      3.5240      3.4866      3.4097      3.3209      3.2458      3.2034      3.2034    
  3.2458      3.3209      3.4097      3.4866      3.5240      3.4956      3.3817      3.1812      2.9142      2.6181    
  2.3386      2.1215      2.0030      2.0030      2.1215      2.3386      3.0395      3.2479      3.4094      3.5027    
  3.5239      3.4866      3.4110      3.3206      3.2382      3.1815      3.1614      3.1815      3.2382      3.3206    
  3.4110      3.4866      3.5239      3.5027      3.4094      3.2479      3.0395      2.8184      2.6236      2.4903    
  2.4430      2.4903      2.6236      2.8184      3.3262      3.4445      3.5120      3.5224      3.4833      3.4097    
  3.3206      3.2357      3.1706      3.1356      3.1356      3.1706      3.2357      3.3206      3.4097      3.4833    
  3.5224      3.5120      3.4444      3.3262      3.1775      3.0274      2.9062      2.8386      2.8386      2.9062    
  3.0274      3.1775      3.4728      3.5153      3.5151      3.4750      3.4052      3.3209      3.2382      3.1706    
  3.1269      3.1119      3.1269      3.1706      3.2382      3.3209      3.4052      3.4750      3.5151      3.5153    
  3.4728      3.3949      3.2991      3.2078      3.1427      3.1191      3.1427      3.2078      3.2991      3.3949    
  3.5036      3.4967      3.4588      3.3964      3.3211      3.2458      3.1815      3.1356      3.1119      3.1119    
  3.1356      3.1815      3.2458      3.3211      3.3965      3.4588      3.4967      3.5036      3.4804      3.4342    
  3.3786      3.3296      3.3012      3.3012      3.3296      3.3786      3.4342      3.4804      3.4622      3.4316    
  3.3819      3.3210      3.2586      3.2034      3.1614      3.1356      3.1269      3.1356      3.1614      3.2034    
  3.2586      3.3210      3.3819      3.4316      3.4622      3.4701      3.4574      3.4312      3.4014      3.3783    
  3.3696      3.3783      3.4014      3.4312      3.4574      3.4701      3.3916      3.3602      3.3195      3.2758    
  3.2356      3.2034      3.1815      3.1706      3.1706      3.1815      3.2034      3.2356      3.2759      3.3195    
  3.3602      3.3916      3.4091      3.4116      3.4015      3.3847      3.3681      3.3580      3.3580      3.3681    
  3.3847      3.4015      3.4115      3.4091      3.3309      3.3154      3.2958      3.2759      3.2586      3.2458    
  3.2382      3.2357      3.2382      3.2458      3.2586      3.2759      3.2958      3.3154      3.3309      3.3392    
  3.3389      3.3306      3.3172      3.3029      3.2920      3.2880      3.2920      3.3029      3.3172      3.3306    
  3.3389      3.3392      3.3074      3.3154      3.3195      3.3210      3.3211      3.3209      3.3206      3.3206    
  3.3209      3.3211      3.3210      3.3195      3.3154      3.3074      3.2947      3.2775      3.2569      3.2352    
  3.2152      3.1998      3.1914      3.1914      3.1998      3.2152      3.2352      3.2569      3.2775      3.2947    
  3.3309      3.3602      3.3819      3.3964      3.4052      3.4097      3.4110      3.4097      3.4052      3.3965    
  3.3819      3.3602      3.3309      3.2947      3.2539      3.2115      3.1712      3.1364      3.1097      3.0931    
  3.0874      3.0931      3.1097      3.1364      3.1712      3.2115      3.2539      3.2947      3.3916      3.4316    
  3.4588      3.4750      3.4833      3.4866      3.4866      3.4833      3.4750      3.4588      3.4316      3.3916    
  3.3392      3.2775      3.2115      3.1473      3.0906      3.0455      3.0147      2.9991      2.9991      3.0147    
  3.0455      3.0906      3.1473      3.2115      3.2775      3.3393      3.4622      3.4967      3.5151      3.5224    
  3.5239      3.5240      3.5239      3.5224      3.5151      3.4967      3.4622      3.4091      3.3389      3.2569    
  3.1712      3.0906      3.0224      2.9716      2.9406      2.9302      2.9406      2.9716      3.0224      3.0906    
  3.1712      3.2569      3.3389      3.4091      3.5036      3.5153      3.5120      3.5027      3.4956      3.4956    
  3.5027      3.5120      3.5153      3.5036      3.4701      3.4116      3.3306      3.2352      3.1364      3.0455    
  2.9716      2.9203      2.8941      2.8941      2.9203      2.9716      3.0456      3.1364      3.2352      3.3306    
  3.4115      3.4700      3.4728      3.4444      3.4094      3.3817      3.3713      3.3817      3.4094      3.4444    
  3.4728      3.4804      3.4574      3.4015      3.3172      3.2152      3.1097      3.0147      2.9406      2.8941    
  2.8783      2.8941      2.9406      3.0147      3.1097      3.2152      3.3172      3.4015      3.4574      3.4804    
  3.3262      3.2479      3.1812      3.1432      3.1432      3.1812      3.2479      3.3262      3.3949      3.4342    
  3.4312      3.3847      3.3029      3.1998      3.0931      2.9991      2.9302      2.8941      2.8941      2.9303    
  2.9991      3.0931      3.1998      3.3029      3.3847      3.4312      3.4342      3.3949      3.0395      2.9142    
  2.8276      2.7967      2.8276      2.9142      3.0395      3.1775      3.2991      3.3786      3.4014      3.3681    
  3.2920      3.1914      3.0874      2.9991      2.9406      2.9203      2.9406      2.9991      3.0874      3.1914    
  3.2920      3.3681      3.4014      3.3786      3.2991      3.1775      2.6181      2.4618      2.3765      2.3765    
  2.4618      2.6181      2.8184      3.0274      3.2078      3.3296      3.3783      3.3580      3.2880      3.1914    
  3.0931      3.0147      2.9716      2.9716      3.0147      3.0931      3.1914      3.2880      3.3580      3.3783    
  3.3296      3.2078      3.0274      2.8184      2.0965      1.9349      1.8782      1.9349      2.0965      2.3386    
  2.6236      2.9062      3.1427      3.3012      3.3696      3.3580      3.2920      3.1998      3.1097      3.0455    
  3.0224      3.0456      3.1097      3.1998      3.2920      3.3580      3.3696      3.3012      3.1427      2.9062    
  2.6236      2.3386      1.5322      1.3961      1.3961      1.5322      1.7859      2.1215      2.4903      2.8386    
  3.1191      3.3012      3.3783      3.3681      3.3029      3.2152      3.1364      3.0906      3.0906      3.1364    
  3.2152      3.3029      3.3681      3.3783      3.3012      3.1191      2.8386      2.4903      2.1215      1.7859    
 0.99499     0.91470     0.99499      1.2259      1.5777      2.0030      2.4430      2.8386      3.1427      3.3296    
  3.4014      3.3847      3.3172      3.2352      3.1712      3.1473      3.1712      3.2352      3.3172      3.3847    
  3.4014      3.3296      3.1427      2.8386      2.4430      2.0030      1.5777      1.2259     0.55437     0.55436    
 0.73009      1.0607      1.5045      2.0030      2.4903      2.9062      3.2078      3.3786      3.4312      3.4015    
  3.3306      3.2569      3.2115      3.2115      3.2569      3.3306      3.4015      3.4312      3.3786      3.2078    
  2.9062      2.4903      2.0030      1.5045      1.0607     0.73010     0.26656     0.36201     0.63761      1.0607    
  1.5777      2.1215      2.6236      3.0274      3.2991      3.4342      3.4574      3.4115      3.3389      3.2775    
  3.2539      3.2775      3.3389      3.4115      3.4574      3.4342      3.2991      3.0274      2.6236      2.1215    
  1.5777      1.0607     0.63761     0.36201     0.16673     0.36202     0.73010      1.2259      1.7859      2.3386    
  2.8184      3.1775      3.3949      3.4804      3.4701      3.4091      3.3392      3.2947      3.2947      3.3393    
  3.4091      3.4700      3.4804      3.3949      3.1775      2.8184      2.3386      1.7859      1.2259     0.73010    
 0.36201     0.16672     0.73643      1.0773      1.5322      2.0401      2.5347      2.9559      3.2617      3.4359    
  3.4912      3.4634      3.3938      3.3207      3.2755      3.2755      3.3207      3.3938      3.4635      3.4912    
  3.4359      3.2617      2.9559      2.5347      2.0401      1.5322      1.0773     0.73645     0.55437     0.55436    
  1.0773      1.4669      1.9349      2.4177      2.8535      3.1930      3.4094      3.5032      3.5009      3.4417    
  3.3636      3.3009      3.2772      3.3009      3.3636      3.4417      3.5009      3.5032      3.4094      3.1930    
  2.8535      2.4177      1.9349      1.4669      1.0773     0.81996     0.73010     0.81996      1.5322      1.9349    
  2.3765      2.7967      3.1432      3.3817      3.5027      3.5224      3.4750      3.3964      3.3210      3.2758    
  3.2759      3.3210      3.3964      3.4750      3.5224      3.5027      3.3817      3.1432      2.7967      2.3765    
  1.9349      1.5322      1.2259      1.0607      1.0607      1.2259      2.0401      2.4177      2.7967      3.1251    
  3.3646      3.4980      3.5327      3.4958      3.4196      3.3361      3.2735      3.2505      3.2735      3.3361    