Al                                      
  0.99748016963348896     
     2.863400    0.000000    0.000000
     1.431700    2.479777    0.000000
     1.431700    0.826592    2.337956
  Al/17880443556
               1
Direct
  0.000000  0.000000  0.000000

   28   28   28
 -.14534266454E+00 -.39693072011E-01 0.26581531360E+00 0.73602593900E+00 0.13130058199E+01
 0.19238044210E+01 0.24940777197E+01 0.29620407810E+01 0.32891586454E+01 0.34669318668E+01
 0.35180509168E+01 0.34877798431E+01 0.34225535822E+01 0.33636756322E+01 0.33405431843E+01
 0.33636756322E+01 0.34225535822E+01 0.34877798431E+01 0.35180509168E+01 0.34669318668E+01
 0.32891586454E+01 0.29620407810E+01 0.24940777197E+01 0.19238044210E+01 0.13130058199E+01
 0.73602593900E+00 0.26581531360E+00 -.39693072011E-01 -.39693072011E-01 0.16595322698E+00
 0.55387466797E+00 0.10771640474E+01 0.16695957698E+01 0.22567156437E+01 0.27700127089E+01
 0.31592933240E+01 0.34014363207E+01 0.35045466613E+01 0.35047448751E+01 0.34493861507E+01
 0.33818014883E+01 0.33379466355E+01 0.33379572035E+01 0.33818168311E+01 0.34493826586E+01
 0.35047278876E+01 0.35045428842E+01 0.34014538685E+01 0.31593117317E+01 0.27700142876E+01
 0.22567059724E+01 0.16695801201E+01 0.10771230742E+01 0.55379148724E+00 0.16585684628E+00
 -.39737042002E-01 0.26581531360E+00 0.55387466797E+00 0.99480601111E+00 0.15322647092E+01
 0.20967926798E+01 0.26184459430E+01 0.30398068501E+01 0.33263511632E+01 0.34728303995E+01
 0.35034930132E+01 0.34619811848E+01 0.33914532232E+01 0.33307781419E+01 0.33073088436E+01
 0.33307823331E+01 0.33914554901E+01 0.34619782372E+01 0.35034896563E+01 0.34728343786E+01
 0.33263643207E+01 0.30398224507E+01 0.26184514310E+01 0.20967740352E+01 0.15322119677E+01
 0.99472242620E+00 0.55378436453E+00 0.26575572619E+00 0.16585684628E+00 0.73602593900E+00
 0.10771640474E+01 0.15322647092E+01 0.20404366329E+01 0.25350862616E+01 0.29562606109E+01
 0.32619100266E+01 0.34359671958E+01 0.34910982546E+01 0.34632696992E+01 0.33936288788E+01
 0.33205989921E+01 0.32754668587E+01 0.32754618214E+01 0.33205920151E+01 0.33936311831E+01
 0.34632778326E+01 0.34911000437E+01 0.34359637860E+01 0.32619164274E+01 0.29562799763E+01
 0.25350954218E+01 0.20404105224E+01 0.15322093781E+01 0.10771112034E+01 0.73599768793E+00
 0.55378436453E+00 0.55379148724E+00 0.13130058199E+01 0.16695957698E+01 0.20967926798E+01
 0.25350862616E+01 0.29263208511E+01 0.32249508869E+01 0.34072727308E+01 0.34760887541E+01
 0.34583398168E+01 0.33909235010E+01 0.33095118446E+01 0.32461341000E+01 0.32224793968E+01
 0.32461354105E+01 0.33095128746E+01 0.33909224059E+01 0.34583360249E+01 0.34760847402E+01
 0.34072746065E+01 0.32249638545E+01 0.29263409372E+01 0.25351002001E+01 0.20967892893E+01
 0.16695775790E+01 0.13129856706E+01 0.10771112034E+01 0.99472242620E+00 0.10771230742E+01
 0.19238044210E+01 0.22567156437E+01 0.26184459430E+01 0.29562606109E+01 0.32249508869E+01
 0.33965161288E+01 0.34662568428E+01 0.34526112971E+01 0.33866020157E+01 0.32997271423E+01
 0.32222667420E+01 0.31773905925E+01 0.31773957848E+01 0.32222745772E+01 0.32997257015E+01
 0.33865912644E+01 0.34526017783E+01 0.34662551077E+01 0.33965200716E+01 0.32249582478E+01
 0.29562733199E+01 0.26184642035E+01 0.22567319908E+01 0.19238107308E+01 0.16695775790E+01
 0.15322093781E+01 0.15322119677E+01 0.16695801201E+01 0.24940777197E+01 0.27700127089E+01
 0.30398068501E+01 0.32619100266E+01 0.34072727308E+01 0.34662568428E+01 0.34501897142E+01
 0.33835723955E+01 0.32930562074E+01 0.32057026914E+01 0.31438177364E+01 0.31215865669E+01
 0.31438201487E+01 0.32057045813E+01 0.32930556832E+01 0.33835697271E+01 0.34501837467E+01
 0.34662448475E+01 0.34072552964E+01 0.32618959009E+01 0.30398063925E+01 0.27700296330E+01
 0.24941051753E+01 0.22567319908E+01 0.20967892893E+01 0.20404105224E+01 0.20967740352E+01
 0.22567059724E+01 0.29620407810E+01 0.31592933240E+01 0.33263511632E+01 0.34359671958E+01
 0.34760887541E+01 0.34526112971E+01 0.33835723955E+01 0.32906898940E+01 0.31972793101E+01
 0.31234108088E+01 0.30830047737E+01 0.30830031966E+01 0.31234091226E+01 0.31972826591E+01
 0.32906984335E+01 0.33835781291E+01 0.34526035032E+01 0.34760641646E+01 0.34359340565E+01
 0.33263249887E+01 0.31592847164E+01 0.29620487032E+01 0.27700296330E+01 0.26184642035E+01
 0.25351002001E+01 0.25350954218E+01 0.26184514310E+01 0.27700142876E+01 0.32891586454E+01
 0.34014363207E+01 0.34728303995E+01 0.34910982546E+01 0.34583398168E+01 0.33866020157E+01
 0.32930562074E+01 0.31972793101E+01 0.31165968545E+01 0.30634698841E+01 0.30450062636E+01
 0.30634674891E+01 0.31165961638E+01 0.31972844644E+01 0.32930668951E+01 0.33866136913E+01
 0.34583449230E+01 0.34910910840E+01 0.34728084083E+01 0.34014036566E+01 0.32891246269E+01
 0.31592847164E+01 0.30398063925E+01 0.29562733199E+01 0.29263409372E+01 0.29562799763E+01
 0.30398224507E+01 0.31593117317E+01 0.34669318668E+01 0.35045466613E+01 0.35034930132E+01
 0.34632696992E+01 0.33909235010E+01 0.32997271423E+01 0.32057026914E+01 0.31234108088E+01
 0.30634698841E+01 0.30321400477E+01 0.30321383944E+01 0.30634661963E+01 0.31234080635E+01
 0.32057061658E+01 0.32997417835E+01 0.33909503607E+01 0.34632992583E+01 0.35035079728E+01
 0.35045332159E+01 0.34668908175E+01 0.34014036566E+01 0.33263249887E+01 0.32618959009E+01
 0.32249582478E+01 0.32249638545E+01 0.32619164274E+01 0.33263643207E+01 0.34014538685E+01
 0.35180509168E+01 0.35047448751E+01 0.34619811848E+01 0.33936288788E+01 0.33095118446E+01
 0.32222667420E+01 0.31438177364E+01 0.30830047737E+01 0.30450062636E+01 0.30321383944E+01
 0.30450027740E+01 0.30829995679E+01 0.31438141354E+01 0.32222692615E+01 0.33095242405E+01
 0.33936521019E+01 0.34620108144E+01 0.35047702161E+01 0.35180615558E+01 0.35045332159E+01
 0.34728084083E+01 0.34359340565E+01 0.34072552964E+01 0.33965200716E+01 0.34072746065E+01
 0.34359637860E+01 0.34728343786E+01 0.35045428842E+01 0.34877798431E+01 0.34493861507E+01
 0.33914532232E+01 0.33205989921E+01 0.32461341000E+01 0.31773905925E+01 0.31215865669E+01
 0.30830031966E+01 0.30634674891E+01 0.30634661963E+01 0.30829995679E+01 0.31215807029E+01
 0.31773813738E+01 0.32461222394E+01 0.33205909225E+01 0.33914604170E+01 0.34494166399E+01
 0.34878266067E+01 0.35047702161E+01 0.35035079728E+01 0.34910910840E+01 0.34760641646E+01
 0.34662448475E+01 0.34662551077E+01 0.34760847402E+01 0.34911000437E+01 0.35034896563E+01
 0.35047278876E+01 0.34225535822E+01 0.33818014883E+01 0.33307781419E+01 0.32754668587E+01
 0.32224793968E+01 0.31773957848E+01 0.31438201487E+01 0.31234091226E+01 0.31165961638E+01
 0.31234080635E+01 0.31438141354E+01 0.31773813738E+01 0.32224578491E+01 0.32754453460E+01
 0.33307665528E+01 0.33818069726E+01 0.34225769645E+01 0.34494166399E+01 0.34620108144E+01
 0.34632992583E+01 0.34583449230E+01 0.34526035032E+01 0.34501837467E+01 0.34526017783E+01
 0.34583360249E+01 0.34632778326E+01 0.34619782372E+01 0.34493826586E+01 0.33636756322E+01
 0.33379466355E+01 0.33073088436E+01 0.32754618214E+01 0.32461354105E+01 0.32222745772E+01
 0.32057045813E+01 0.31972826591E+01 0.31972844644E+01 0.32057061658E+01 0.32222692615E+01
 0.32461222394E+01 0.32754453460E+01 0.33072924739E+01 0.33379300347E+01 0.33636592054E+01
 0.33818069726E+01 0.33914604170E+01 0.33936521019E+01 0.33909503607E+01 0.33866136913E+01
 0.33835781291E+01 0.33835697271E+01 0.33865912644E+01 0.33909224059E+01 0.33936311831E+01
 0.33914554901E+01 0.33818168311E+01 0.33405431843E+01 0.33379572035E+01 0.33307823331E+01
 0.33205920151E+01 0.33095128746E+01 0.32997257015E+01 0.32930556832E+01 0.32906984335E+01
 0.32930668951E+01 0.32997417835E+01 0.33095242405E+01 0.33205909225E+01 0.33307665528E+01
 0.33379300347E+01 0.33405118456E+01 0.33379300347E+01 0.33307665528E+01 0.33205909225E+01
 0.33095242405E+01 0.32997417835E+01 0.32930668951E+01 0.32906984335E+01 0.32930556832E+01
 0.32997257015E+01 0.33095128746E+01 0.33205920151E+01 0.33307823331E+01 0.33379572035E+01
 0.33636756322E+01 0.33818168311E+01 0.33914554901E+01 0.33936311831E+01 0.33909224059E+01
 0.33865912644E+01 0.33835697271E+01 0.33835781291E+01 0.33866136913E+01 0.33909503607E+01
 0.33936521019E+01 0.33914604170E+01 0.33818069726E+01 0.33636592054E+01 0.33379300347E+01
 0.33072924739E+01 0.32754453460E+01 0.32461222394E+01 0.32222692615E+01 0.32057061658E+01
 0.31972844644E+01 0.31972826591E+01 0.32057045813E+01 0.32222745772E+01 0.32461354105E+01
 0.32754618214E+01 0.33073088436E+01 0.33379466355E+01 0.34225535822E+01 0.34493826586E+01
 0.34619782372E+01 0.34632778326E+01 0.34583360249E+01 0.34526017783E+01 0.34501837467E+01
 0.34526035032E+01 0.34583449230E+01 0.34632992583E+01 0.34620108144E+01 0.34494166399E+01
 0.34225769645E+01 0.33818069726E+01 0.33307665528E+01 0.32754453460E+01 0.32224578491E+01
 0.31773813738E+01 0.31438141354E+01 0.31234080635E+01 0.31165961638E+01 0.31234091226E+01
 0.31438201487E+01 0.31773957848E+01 0.32224793968E+01 0.32754668587E+01 0.33307781419E+01
 0.33818014883E+01 0.34877798431E+01 0.35047278876E+01 0.35034896563E+01 0.34911000437E+01
 0.34760847402E+01 0.34662551077E+01 0.34662448475E+01 0.34760641646E+01 0.34910910840E+01
 0.35035079728E+01 0.35047702161E+01 0.34878266067E+01 0.34494166399E+01 0.33914604170E+01
 0.33205909225E+01 0.32461222394E+01 0.31773813738E+01 0.31215807029E+01 0.30829995679E+01
 0.30634661963E+01 0.30634674891E+01 0.30830031966E+01 0.31215865669E+01 0.31773905925E+01
 0.32461341000E+01 0.33205989921E+01 0.33914532232E+01 0.34493861507E+01 0.35180509168E+01
 0.35045428842E+01 0.34728343786E+01 0.34359637860E+01 0.34072746065E+01 0.33965200716E+01
 0.34072552964E+01 0.34359340565E+01 0.34728084083E+01 0.35045332159E+01 0.35180615558E+01
 0.35047702161E+01 0.34620108144E+01 0.33936521019E+01 0.33095242405E+01 0.32222692615E+01
 0.31438141354E+01 0.30829995679E+01 0.30450027740E+01 0.30321383944E+01 0.30450062636E+01
 0.30830047737E+01 0.31438177364E+01 0.32222667420E+01 0.33095118446E+01 0.33936288788E+01
 0.34619811848E+01 0.35047448751E+01 0.34669318668E+01 0.34014538685E+01 0.33263643207E+01
 0.32619164274E+01 0.32249638545E+01 0.32249582478E+01 0.32618959009E+01 0.33263249887E+01
 0.34014036566E+01 0.34668908175E+01 0.35045332159E+01 0.35035079728E+01 0.34632992583E+01
 0.33909503607E+01 0.32997417835E+01 0.32057061658E+01 0.31234080635E+01 0.30634661963E+01
 0.30321383944E+01 0.30321400477E+01 0.30634698841E+01 0.31234108088E+01 0.32057026914E+01
 0.32997271423E+01 0.33909235010E+01 0.34632696992E+01 0.35034930132E+01 0.35045466613E+01
 0.32891586454E+01 0.31593117317E+01 0.30398224507E+01 0.29562799763E+01 0.29263409372E+01
 0.29562733199E+01 0.30398063925E+01 0.31592847164E+01 0.32891246269E+01 0.34014036566E+01
 0.34728084083E+01 0.34910910840E+01 0.34583449230E+01 0.33866136913E+01 0.32930668951E+01
 0.31972844644E+01 0.31165961638E+01 0.30634674891E+01 0.30450062636E+01 0.30634698841E+01
 0.31165968545E+01 0.31972793101E+01 0.32930562074E+01 0.33866020157E+01 0.34583398168E+01
 0.34910982546E+01 0.34728303995E+01 0.34014363207E+01 0.29620407810E+01 0.27700142876E+01
 0.26184514310E+01 0.25350954218E+01 0.25351002001E+01 0.26184642035E+01 0.27700296330E+01
 0.29620487032E+01 0.31592847164E+01 0.33263249887E+01 0.34359340565E+01 0.34760641646E+01
 0.34526035032E+01 0.33835781291E+01 0.32906984335E+01 0.31972826591E+01 0.31234091226E+01
 0.30830031966E+01 0.30830047737E+01 0.31234108088E+01 0.31972793101E+01 0.32906898940E+01
 0.33835723955E+01 0.34526112971E+01 0.34760887541E+01 0.34359671958E+01 0.33263511632E+01
 0.31592933240E+01 0.24940777197E+01 0.22567059724E+01 0.20967740352E+01 0.20404105224E+01
 0.20967892893E+01 0.22567319908E+01 0.24941051753E+01 0.27700296330E+01 0.30398063925E+01
 0.32618959009E+01 0.34072552964E+01 0.34662448475E+01 0.34501837467E+01 0.33835697271E+01
 0.32930556832E+01 0.32057045813E+01 0.31438201487E+01 0.31215865669E+01 0.31438177364E+01
 0.32057026914E+01 0.32930562074E+01 0.33835723955E+01 0.34501897142E+01 0.34662568428E+01
 0.34072727308E+01 0.32619100266E+01 0.30398068501E+01 0.27700127089E+01 0.19238044210E+01
 0.16695801201E+01 0.15322119677E+01 0.15322093781E+01 0.16695775790E+01 0.19238107308E+01
 0.22567319908E+01 0.26184642035E+01 0.29562733199E+01 0.32249582478E+01 0.33965200716E+01
 0.34662551077E+01 0.34526017783E+01 0.33865912644E+01 0.32997257015E+01 0.32222745772E+01
 0.31773957848E+01 0.31773905925E+01 0.32222667420E+01 0.32997271423E+01 0.33866020157E+01
 0.34526112971E+01 0.34662568428E+01 0.33965161288E+01 0.32249508869E+01 0.29562606109E+01
 0.26184459430E+01 0.22567156437E+01 0.13130058199E+01 0.10771230742E+01 0.99472242620E+00
 0.10771112034E+01 0.13129856706E+01 0.16695775790E+01 0.20967892893E+01 0.25351002001E+01
 0.29263409372E+01 0.32249638545E+01 0.34072746065E+01 0.34760847402E+01 0.34583360249E+01
 0.33909224059E+01 0.33095128746E+01 0.32461354105E+01 0.32224793968E+01 0.32461341000E+01
 0.33095118446E+01 0.33909235010E+01 0.34583398168E+01 0.34760887541E+01 0.34072727308E+01
 0.32249508869E+01 0.29263208511E+01 0.25350862616E+01 0.20967926798E+01 0.16695957698E+01
 0.73602593900E+00 0.55379148724E+00 0.55378436453E+00 0.73599768793E+00 0.10771112034E+01
 0.15322093781E+01 0.20404105224E+01 0.25350954218E+01 0.29562799763E+01 0.32619164274E+01
 0.34359637860E+01 0.34911000437E+01 0.34632778326E+01 0.33936311831E+01 0.33205920151E+01
 0.32754618214E+01 0.32754668587E+01 0.33205989921E+01 0.33936288788E+01 0.34632696992E+01
 0.34910982546E+01 0.34359671958E+01 0.32619100266E+01 0.29562606109E+01 0.25350862616E+01
 0.20404366329E+01 0.15322647092E+01 0.10771640474E+01 0.26581531360E+00 0.16585684628E+00
 0.26575572619E+00 0.55378436453E+00 0.99472242620E+00 0.15322119677E+01 0.20967740352E+01
 0.26184514310E+01 0.30398224507E+01 0.33263643207E+01 0.34728343786E+01 0.35034896563E+01
 0.34619782372E+01 0.33914554901E+01 0.33307823331E+01 0.33073088436E+01 0.33307781419E+01
 0.33914532232E+01 0.34619811848E+01 0.35034930132E+01 0.34728303995E+01 0.33263511632E+01
 0.30398068501E+01 0.26184459430E+01 0.20967926798E+01 0.15322647092E+01 0.99480601111E+00
 0.55387466797E+00 -.39693072011E-01 -.39737042002E-01 0.16585684628E+00 0.55379148724E+00
 0.10771230742E+01 0.16695801201E+01 0.22567059724E+01 0.27700142876E+01 0.31593117317E+01
 0.34014538685E+01 0.35045428842E+01 0.35047278876E+01 0.34493826586E+01 0.33818168311E+01
 0.33379572035E+01 0.33379466355E+01 0.33818014883E+01 0.34493861507E+01 0.35047448751E+01
 0.35045466613E+01 0.34014363207E+01 0.31592933240E+01 0.27700127089E+01 0.22567156437E+01
 0.16695957698E+01 0.10771640474E+01 0.55387466797E+00 0.16595322698E+00 -.39693671122E-01
 0.16595218623E+00 0.55387394633E+00 0.10771637046E+01 0.16695952882E+01 0.22567151065E+01
 0.27700126510E+01 0.31592935849E+01 0.34014362543E+01 0.35045463393E+01 0.35047449034E+01
 0.34493864607E+01 0.33818014984E+01 0.33379464377E+01 0.33379573912E+01 0.33818173104E+01
 0.34493828231E+01 0.35047278121E+01 0.35045431558E+01 0.34014544043E+01 0.31593119590E+01
 0.27700143276E+01 0.22567064426E+01 0.16695809130E+01 0.10771235144E+01 0.55379153602E+00
 0.16585697300E+00 -.39736993647E-01 0.16595218623E+00 0.46163885034E+00 0.91447271469E+00
 0.14669309238E+01 0.20481175016E+01 0.25866727731E+01 0.30238973110E+01 0.33240898133E+01
 0.34810302322E+01 0.35185131252E+01 0.34807644571E+01 0.34119916398E+01 0.33518886917E+01
 0.33285193013E+01 0.33518941314E+01 0.34119944381E+01 0.34807608471E+01 0.35185092521E+01
 0.34810342707E+01 0.33241034723E+01 0.30239176324E+01 0.25866915994E+01 0.20481142779E+01
 0.14668737584E+01 0.91434669888E+00 0.46147947629E+00 0.16583851713E+00 0.63352998532E-01
 0.55387394633E+00 0.91447271469E+00 0.13960883238E+01 0.19351000544E+01 0.24621000337E+01
 0.29145565145E+01 0.32480682743E+01 0.34445060760E+01 0.35152312814E+01 0.34964686331E+01
 0.34314163492E+01 0.33600719843E+01 0.33152907616E+01 0.33152856717E+01 0.33600650383E+01
 0.34314191033E+01 0.34964773597E+01 0.35152335898E+01 0.34445045222E+01 0.32480814218E+01
 0.29145889298E+01 0.24621206410E+01 0.19350658367E+01 0.13959894937E+01 0.91434566906E+00
 0.55377281110E+00 0.36130028992E+00 0.36133790633E+00 0.10771637046E+01 0.14669309238E+01
 0.19351000544E+01 0.24180608693E+01 0.28537780748E+01 0.31931888663E+01 0.34094735159E+01
 0.35031788409E+01 0.35007355777E+01 0.34415131448E+01 0.33634156416E+01 0.33007647244E+01
 0.32771174499E+01 0.33007669221E+01 0.33634173818E+01 0.34415122245E+01 0.35007331861E+01
 0.35031797001E+01 0.34094837377E+01 0.31932090669E+01 0.28537974230E+01 0.24180607484E+01
 0.19350701186E+01 0.14668808266E+01 0.10771153731E+01 0.81960328134E+00 0.72970175378E+00
 0.81963137203E+00 0.16695952882E+01 0.20481175016E+01 0.24621000337E+01 0.28537780748E+01
 0.31732682195E+01 0.33884164984E+01 0.34913502273E+01 0.34991678412E+01 0.34451921914E+01
 0.33635994576E+01 0.32873653153E+01 0.32423081320E+01 0.32423153322E+01 0.32873761710E+01
 0.33635977100E+01 0.34451789833E+01 0.34991589517E+01 0.34913540179E+01 0.33884277079E+01
 0.31732812199E+01 0.28537950746E+01 0.24621205636E+01 0.20481300589E+01 0.16695896712E+01
 0.13813839245E+01 0.12258481887E+01 0.12258577131E+01 0.13814014273E+01 0.22567151065E+01
 0.25866727731E+01 0.29145565145E+01 0.31931888663E+01 0.33884164984E+01 0.34865719015E+01
 0.34968816372E+01 0.34456989242E+01 0.33624318031E+01 0.32768913901E+01 0.32145001544E+01
 0.31918100504E+01 0.32145042336E+01 0.32768939793E+01 0.33624282762E+01 0.34456896575E+01
 0.34968707291E+01 0.34865640961E+01 0.33884172198E+01 0.31932020828E+01 0.29145806736E+01
 0.25866999032E+01 0.22567355563E+01 0.19751649996E+01 0.17861464279E+01 0.17196161721E+01
 0.17861437686E+01 0.19751550358E+01 0.27700126510E+01 0.30238973110E+01 0.32480682743E+01
 0.34094735159E+01 0.34913502273E+01 0.34968816372E+01 0.34455555092E+01 0.33614182668E+01
 0.32703308083E+01 0.31955866399E+01 0.31539324909E+01 0.31539306405E+01 0.31955845139E+01
 0.32703327677E+01 0.33614221579E+01 0.34455532412E+01 0.34968688652E+01 0.34913308173E+01
 0.34094556065E+01 0.32480588982E+01 0.30239009124E+01 0.27700324467E+01 0.25280506334E+01
 0.23390829135E+01 0.22356517151E+01 0.22356381048E+01 0.23390506283E+01 0.25280177931E+01
 0.31592935849E+01 0.33240898133E+01 0.34445060760E+01 0.35031788409E+01 0.34991678412E+01
 0.34456989242E+01 0.33614182668E+01 0.32681087087E+01 0.31861261023E+01 0.31308448476E+01
 0.31114195074E+01 0.31308427034E+01 0.31861262662E+01 0.32681149317E+01 0.33614283609E+01
 0.34457039668E+01 0.34991576727E+01 0.35031508949E+01 0.34444692133E+01 0.33240614274E+01
 0.31592863876E+01 0.29795373285E+01 0.28188575508E+01 0.27081397911E+01 0.26686994598E+01
 0.27081235867E+01 0.28188347805E+01 0.29795235054E+01 0.34014362543E+01 0.34810302322E+01
 0.35152312814E+01 0.35007355777E+01 0.34451921914E+01 0.33624318031E+01 0.32703308083E+01
 0.31861261023E+01 0.31231328284E+01 0.30897106163E+01 0.30897094440E+01 0.31231308477E+01
 0.31861271016E+01 0.32703377311E+01 0.33624443669E+01 0.34452056408E+01 0.35007412640E+01
 0.35152224898E+01 0.34810057496E+01 0.34014034960E+01 0.32923190895E+01 0.31777772309E+01
 0.30834555173E+01 0.30304152316E+01 0.30304184617E+01 0.30834664406E+01 0.31777983569E+01
 0.32923492751E+01 0.35045463393E+01 0.35185131252E+01 0.34964686331E+01 0.34415131448E+01
 0.33635994576E+01 0.32768913901E+01 0.31955866399E+01 0.31308448476E+01 0.30897106163E+01
 0.30756668412E+01 0.30897072495E+01 0.31308400542E+01 0.31955839218E+01 0.32768961321E+01
 0.33636168054E+01 0.34415434581E+01 0.34965005369E+01 0.35185285151E+01 0.35045329798E+01
 0.34589943570E+01 0.33950187450E+01 0.33306065179E+01 0.32834351577E+01 0.32661875142E+01
 0.32834511633E+01 0.33306400517E+01 0.33950634418E+01 0.34590327855E+01 0.35047449034E+01
 0.34807644571E+01 0.34314163492E+01 0.33634156416E+01 0.32873653153E+01 0.32145001544E+01
 0.31539324909E+01 0.31114195074E+01 0.30897094440E+01 0.30897072495E+01 0.31114137350E+01
 0.31539256276E+01 0.32144961012E+01 0.32873688699E+01 0.33634300908E+01 0.34314418743E+01
 0.34807954227E+01 0.35047702634E+01 0.35028124358E+01 0.34803190396E+01 0.34471846815E+01
 0.34157065265E+01 0.33968027123E+01 0.33968115419E+01 0.34157279185E+01 0.34472062384E+01
 0.34803277841E+01 0.35028023932E+01 0.34493864607E+01 0.34119916398E+01 0.33600719843E+01
 0.33007647244E+01 0.32423081320E+01 0.31918100504E+01 0.31539306405E+01 0.31308427034E+01
 0.31231308477E+01 0.31308400542E+01 0.31539256276E+01 0.31918024776E+01 0.32422970748E+01
 0.33007518360E+01 0.33600641815E+01 0.34119998318E+01 0.34494167473E+01 0.34684819652E+01
 0.34699010498E+01 0.34586346572E+01 0.34422385269E+01 0.34284698468E+01 0.34231603404E+01
 0.34284803366E+01 0.34422438950E+01 0.34586190121E+01 0.34698633261E+01 0.34684380366E+01
 0.33818014984E+01 0.33518886917E+01 0.33152907616E+01 0.32771174499E+01 0.32423153322E+01
 0.32145042336E+01 0.31955845139E+01 0.31861262662E+01 0.31861271016E+01 0.31955839218E+01
 0.32144961012E+01 0.32422970748E+01 0.32770928919E+01 0.33152687464E+01 0.33518781280E+01
 0.33818072412E+01 0.34012662247E+01 0.34089732049E+01 0.34065459706E+01 0.33979614321E+01
 0.33882863119E+01 0.33821003854E+01 0.33820981606E+01 0.33882776064E+01 0.33979427719E+01
 0.34065181205E+01 0.34089436890E+01 0.34012450825E+01 0.33379464377E+01 0.33285193013E+01
 0.33152856717E+01 0.33007669221E+01 0.32873761710E+01 0.32768939793E+01 0.32703327677E+01
 0.32681149317E+01 0.32703377311E+01 0.32768961321E+01 0.32873688699E+01 0.33007518360E+01
 0.33152687464E+01 0.33285034281E+01 0.33379302983E+01 0.33416646954E+01 0.33391022878E+01
 0.33311761011E+01 0.33201533208E+01 0.33090622548E+01 0.33009157622E+01 0.32979237725E+01
 0.33009002049E+01 0.33090396268E+01 0.33201360611E+01 0.33311730123E+01 0.33391125993E+01
 0.33416809366E+01 0.33379573912E+01 0.33518941314E+01 0.33600650383E+01 0.33634173818E+01
 0.33635977100E+01 0.33624282762E+01 0.33614221579E+01 0.33614283609E+01 0.33624443669E+01
 0.33636168054E+01 0.33634300908E+01 0.33600641815E+01 0.33518781280E+01 0.33379302983E+01
 0.33183836636E+01 0.32946216831E+01 0.32689934555E+01 0.32442912399E+01 0.32231950865E+01
 0.32078828333E+01 0.31998472306E+01 0.31998418782E+01 0.32078706746E+01 0.32231853843E+01
 0.32442924992E+01 0.32690085745E+01 0.32946479241E+01 0.33184143886E+01 0.33818173104E+01
 0.34119944381E+01 0.34314191033E+01 0.34415122245E+01 0.34451789833E+01 0.34456896575E+01
 0.34455532412E+01 0.34457039668E+01 0.34452056408E+01 0.34415434581E+01 0.34314418743E+01
 0.34119998318E+01 0.33818072412E+01 0.33416646954E+01 0.32946216831E+01 0.32452876484E+01
 0.31986795766E+01 0.31590915966E+01 0.31294437982E+01 0.31112739852E+01 0.31051733763E+01
 0.31112733711E+01 0.31294468289E+01 0.31591010087E+01 0.31986936472E+01 0.32453037587E+01
 0.32946389046E+01 0.33416815688E+01 0.34493828231E+01 0.34807608471E+01 0.34964773597E+01
 0.35007331861E+01 0.34991589517E+01 0.34968707291E+01 0.34968688652E+01 0.34991576727E+01
 0.35007412640E+01 0.34965005369E+01 0.34807954227E+01 0.34494167473E+01 0.34012662247E+01
 0.33391022878E+01 0.32689934555E+01 0.31986795766E+01 0.31355565325E+01 0.30851482201E+01
 0.30506062890E+01 0.30331907948E+01 0.30331913690E+01 0.30506098267E+01 0.30851578973E+01
 0.31355729300E+01 0.31986981187E+01 0.32690053419E+01 0.33390993030E+01 0.34012451790E+01
 0.35047278121E+01 0.35185092521E+01 0.35152335898E+01 0.35031797001E+01 0.34913540179E+01
 0.34865640961E+01 0.34913308173E+01 0.35031508949E+01 0.35152224898E+01 0.35185285151E+01
 0.35047702634E+01 0.34684819652E+01 0.34089732049E+01 0.33311761011E+01 0.32442912399E+01
 0.31590915966E+01 0.30851482201E+01 0.30291334488E+01 0.29946291789E+01 0.29830269949E+01
 0.29946311638E+01 0.30291371457E+01 0.30851545017E+01 0.31591008779E+01 0.32442987907E+01
 0.33311713053E+01 0.34089465312E+01 0.34684375835E+01 0.35045431558E+01 0.34810342707E+01
 0.34445045222E+01 0.34094837377E+01 0.33884277079E+01 0.33884172198E+01 0.34094556065E+01
 0.34444692133E+01 0.34810057496E+01 0.35045329798E+01 0.35028124358E+01 0.34699010498E+01
 0.34065459706E+01 0.33201533208E+01 0.32231950865E+01 0.31294437982E+01 0.30506062890E+01
 0.29946291789E+01 0.29657976163E+01 0.29657992247E+01 0.29946327461E+01 0.30506087816E+01
 0.31294415419E+01 0.32231850058E+01 0.33201343095E+01 0.34065205354E+01 0.34698781127E+01
 0.35028025340E+01 0.34014544043E+01 0.33241034723E+01 0.32480814218E+01 0.31932090669E+01
 0.31732812199E+01 0.31932020828E+01 0.32480588982E+01 0.33240614274E+01 0.34014034960E+01
 0.34589943570E+01 0.34803190396E+01 0.34586346572E+01 0.33979614321E+01 0.33090622548E+01
 0.32078828333E+01 0.31112739852E+01 0.30331907948E+01 0.29830269949E+01 0.29657992247E+01
 0.29830299857E+01 0.30331936162E+01 0.31112715845E+01 0.32078708236E+01 0.33090401860E+01
 0.33979365785E+01 0.34586218321E+01 0.34803311381E+01 0.34590335107E+01 0.31593119590E+01
 0.30239176324E+01 0.29145889298E+01 0.28537974230E+01 0.28537950746E+01 0.29145806736E+01
 0.30239009124E+01 0.31592863876E+01 0.32923190895E+01 0.33950187450E+01 0.34471846815E+01
 0.34422385269E+01 0.33882863119E+01 0.33009157622E+01 0.31998472306E+01 0.31051733763E+01
 0.30331913690E+01 0.29946311638E+01 0.29946327461E+01 0.30331936162E+01 0.31051710352E+01
 0.31998388271E+01 0.33009052005E+01 0.33882813684E+01 0.34422449816E+01 0.34472039467E+01
 0.33950473677E+01 0.32923494401E+01 0.27700143276E+01 0.25866915994E+01 0.24621206410E+01
 0.24180607484E+01 0.24621205636E+01 0.25866999032E+01 0.27700324467E+01 0.29795373285E+01
 0.31777772309E+01 0.33306065179E+01 0.34157065265E+01 0.34284698468E+01 0.33821003854E+01
 0.32979237725E+01 0.31998418782E+01 0.31112733711E+01 0.30506098267E+01 0.30291371457E+01
 0.30506087816E+01 0.31112715845E+01 0.31998388271E+01 0.32979203567E+01 0.33821032723E+01
 0.34284867623E+01 0.34157357010E+01 0.33306320722E+01 0.31777826569E+01 0.29795231631E+01
 0.22567064426E+01 0.20481142779E+01 0.19350658367E+01 0.19350701186E+01 0.20481300589E+01
 0.22567355563E+01 0.25280506334E+01 0.28188575508E+01 0.30834555173E+01 0.32834351577E+01
 0.33968027123E+01 0.34231603404E+01 0.33820981606E+01 0.33009002049E+01 0.32078706746E+01
 0.31294468289E+01 0.30851578973E+01 0.30851545017E+01 0.31294415419E+01 0.32078708236E+01
 0.33009052005E+01 0.33821032723E+01 0.34231664148E+01 0.33968148012E+01 0.32834494938E+01
 0.30834581898E+01 0.28188392201E+01 0.25280181806E+01 0.16695809130E+01 0.14668737584E+01
 0.13959894937E+01 0.14668808266E+01 0.16695896712E+01 0.19751649996E+01 0.23390829135E+01
 0.27081397911E+01 0.30304152316E+01 0.32661875142E+01 0.33968115419E+01 0.34284803366E+01
 0.33882776064E+01 0.33090396268E+01 0.32231853843E+01 0.31591010087E+01 0.31355729300E+01
 0.31591008779E+01 0.32231850058E+01 0.33090401860E+01 0.33882813684E+01 0.34284867623E+01
 0.33968148012E+01 0.32661804224E+01 0.30303982072E+01 0.27081211713E+01 0.23390697496E+01
 0.19751562104E+01 0.10771235144E+01 0.91434669888E+00 0.91434566906E+00 0.10771153731E+01
 0.13813839245E+01 0.17861464279E+01 0.22356517151E+01 0.26686994598E+01 0.30304184617E+01
 0.32834511633E+01 0.34157279185E+01 0.34422438950E+01 0.33979427719E+01 0.33201360611E+01
 0.32442924992E+01 0.31986936472E+01 0.31986981187E+01 0.32442987907E+01 0.33201343095E+01
 0.33979365785E+01 0.34422449816E+01 0.34157357010E+01 0.32834494938E+01 0.30303982072E+01
 0.26686749775E+01 0.22356454008E+01 0.17861612644E+01 0.13814022155E+01 0.55379153602E+00
 0.46147947629E+00 0.55377281110E+00 0.81960328134E+00 0.12258481887E+01 0.17196161721E+01
 0.22356381048E+01 0.27081235867E+01 0.30834664406E+01 0.33306400517E+01 0.34472062384E+01
 0.34586190121E+01 0.34065181205E+01 0.33311730123E+01 0.32690085745E+01 0.32453037587E+01
 0.32690053419E+01 0.33311713053E+01 0.34065205354E+01 0.34586218321E+01 0.34472039467E+01
 0.33306320722E+01 0.30834581898E+01 0.27081211713E+01 0.22356454008E+01 0.17196340467E+01
 0.12258747242E+01 0.81963166215E+00 0.16585697300E+00 0.16583851713E+00 0.36130028992E+00
 0.72970175378E+00 0.12258577131E+01 0.17861437686E+01 0.23390506283E+01 0.28188347805E+01
 0.31777983569E+01 0.33950634418E+01 0.34803277841E+01 0.34698633261E+01 0.34089436890E+01
 0.33391125993E+01 0.32946479241E+01 0.32946389046E+01 0.33390993030E+01 0.34089465312E+01
 0.34698781127E+01 0.34803311381E+01 0.33950473677E+01 0.31777826569E+01 0.28188392201E+01
 0.23390697496E+01 0.17861612644E+01 0.12258747242E+01 0.72973193315E+00 0.36133866756E+00
 -.39736993647E-01 0.63352998532E-01 0.36133790633E+00 0.81963137203E+00 0.13814014273E+01
 0.19751550358E+01 0.25280177931E+01 0.29795235054E+01 0.32923492751E+01 0.34590327855E+01
 0.35028023932E+01 0.34684380366E+01 0.34012450825E+01 0.33416809366E+01 0.33184143886E+01
 0.33416815688E+01 0.34012451790E+01 0.34684375835E+01 0.35028025340E+01 0.34590335107E+01
 0.32923494401E+01 0.29795231631E+01 0.25280181806E+01 0.19751562104E+01 0.13814022155E+01
 0.81963166215E+00 0.36133866756E+00 0.63354025840E-01 0.26581407304E+00 0.55387315474E+00
 0.99480544499E+00 0.15322648620E+01 0.20967924876E+01 0.26184455971E+01 0.30398072397E+01
 0.33263518836E+01 0.34728303992E+01 0.35034926261E+01 0.34619814715E+01 0.33914538968E+01
 0.33307781870E+01 0.33073085698E+01 0.33307827546E+01 0.33914562806E+01 0.34619783594E+01
 0.35034894148E+01 0.34728348009E+01 0.33263651138E+01 0.30398226212E+01 0.26184513095E+01
 0.20967746164E+01 0.15322128421E+01 0.99472242417E+00 0.55378366170E+00 0.26575528834E+00
 0.16585642720E+00 0.55387315474E+00 0.91447206560E+00 0.13960883186E+01 0.19351004189E+01
 0.24621002005E+01 0.29145565921E+01 0.32480686439E+01 0.34445064954E+01 0.35152313181E+01
 0.34964685489E+01 0.34314166278E+01 0.33600724102E+01 0.33152908724E+01 0.33152856794E+01
 0.33600653865E+01 0.34314195561E+01 0.34964774520E+01 0.35152335431E+01 0.34445047988E+01
 0.32480818089E+01 0.29145889754E+01 0.24621205489E+01 0.19350660070E+01 0.13959896205E+01
 0.91434522362E+00 0.55377200027E+00 0.36129963659E+00 0.36133732773E+00 0.99480544499E+00
 0.13960883186E+01 0.18784273474E+01 0.23767969664E+01 0.28278569344E+01 0.31813758195E+01