Al                                      
  0.99748016963348896     
     2.863400    0.000000    0.000000
     1.431700    2.479777    0.000000
     1.431700    0.826592    2.337956
  Al/17880443556
               1
Direct
  0.000000  0.000000  0.000000

   28   28   28
 -.14423121901E+00 -.38674789320E-01 0.26657822511E+00 0.73643352000E+00 0.13130438127E+01
 0.19235487070E+01 0.24936753564E+01 0.29616614158E+01 0.32889321344E+01 0.34669025165E+01
 0.35181835589E+01 0.34879890564E+01 0.34227391507E+01 0.33637960211E+01 0.33406309201E+01
 0.33637960211E+01 0.34227391507E+01 0.34879890564E+01 0.35181835589E+01 0.34669025165E+01
 0.32889321344E+01 0.29616614158E+01 0.24936753564E+01 0.19235487070E+01 0.13130438127E+01
 0.73643352000E+00 0.26657822511E+00 -.38674789320E-01 -.38674789320E-01 0.16678286449E+00
 0.55439241057E+00 0.10773239172E+01 0.16694384289E+01 0.22563573233E+01 0.27696117518E+01
 0.31589951453E+01 0.34013208005E+01 0.35046112981E+01 0.35049279773E+01 0.34495902037E+01
 0.33819514223E+01 0.33380410005E+01 0.33380512132E+01 0.33819663530E+01 0.34495870183E+01
 0.35049117149E+01 0.35046062906E+01 0.34013328041E+01 0.31590041864E+01 0.27696060255E+01
 0.22563518172E+01 0.16694458401E+01 0.10773247924E+01 0.55435883375E+00 0.16672690209E+00
 -.38703101818E-01 0.26657822511E+00 0.55439241057E+00 0.99500882918E+00 0.15321653936E+01
 0.20964786110E+01 0.26180531180E+01 0.30394743171E+01 0.33261731980E+01 0.34728291324E+01
 0.35036305541E+01 0.34621797725E+01 0.33916242715E+01 0.33308881767E+01 0.33073882728E+01
 0.33308912641E+01 0.33916261176E+01 0.34621780385E+01 0.35036278345E+01 0.34728285005E+01
 0.33261738487E+01 0.30394736999E+01 0.26180508510E+01 0.20964750201E+01 0.15321575807E+01
 0.99499276951E+00 0.55437055277E+00 0.26656175887E+00 0.16672690209E+00 0.73643352000E+00
 0.10773239172E+01 0.15321653936E+01 0.20401403552E+01 0.25347055152E+01 0.29559177837E+01
 0.32616963716E+01 0.34359151021E+01 0.34911868050E+01 0.34634425167E+01 0.33938043734E+01
 0.33207236981E+01 0.32755445103E+01 0.32755385322E+01 0.33207152153E+01 0.33938071257E+01
 0.34634529767E+01 0.34911889330E+01 0.34359046933E+01 0.32616873659E+01 0.29559199761E+01
 0.25347086542E+01 0.20401313807E+01 0.15321525559E+01 0.10773272780E+01 0.73645318837E+00
 0.55437055277E+00 0.55435883375E+00 0.13130438127E+01 0.16694384289E+01 0.20964786110E+01
 0.25347055152E+01 0.29259764987E+01 0.32247220422E+01 0.34071894989E+01 0.34761368974E+01
 0.34584781693E+01 0.33910866047E+01 0.33096417936E+01 0.32462160444E+01 0.32225388991E+01
 0.32462157291E+01 0.33096419051E+01 0.33910874761E+01 0.34584784909E+01 0.34761351029E+01
 0.34071871815E+01 0.32247234085E+01 0.29259823432E+01 0.25347106633E+01 0.20964786323E+01
 0.16694360249E+01 0.13130441817E+01 0.10773272780E+01 0.99499276951E+00 0.10773247924E+01
 0.19235487070E+01 0.22563573233E+01 0.26180531180E+01 0.29559177837E+01 0.32247220422E+01
 0.33964226072E+01 0.34662820595E+01 0.34527207201E+01 0.33867444552E+01 0.32998514875E+01
 0.32223515803E+01 0.31774457953E+01 0.31774500792E+01 0.32223578316E+01 0.32998500611E+01
 0.33867371979E+01 0.34527177636E+01 0.34662871911E+01 0.33964298797E+01 0.32247264005E+01
 0.29559212172E+01 0.26180579387E+01 0.22563596395E+01 0.19235435353E+01 0.16694360249E+01
 0.15321525559E+01 0.15321575807E+01 0.16694458401E+01 0.24936753564E+01 0.27696117518E+01
 0.30394743171E+01 0.32616963716E+01 0.34071894989E+01 0.34662820595E+01 0.34502876618E+01
 0.33836993730E+01 0.32931703276E+01 0.32057864459E+01 0.31438749619E+01 0.31216335413E+01
 0.31438760955E+01 0.32057866856E+01 0.32931695298E+01 0.33836997404E+01 0.34502893207E+01
 0.34662814195E+01 0.34071842751E+01 0.32616901825E+01 0.30394735483E+01 0.27696184495E+01
 0.24936853440E+01 0.22563596395E+01 0.20964786323E+01 0.20401313807E+01 0.20964750201E+01
 0.22563518172E+01 0.29616614158E+01 0.31589951453E+01 0.33261731980E+01 0.34359151021E+01
 0.34761368974E+01 0.34527207201E+01 0.33836993730E+01 0.32907991435E+01 0.31973603994E+01
 0.31234709732E+01 0.30830556342E+01 0.30830537414E+01 0.31234678644E+01 0.31973607766E+01
 0.32908039575E+01 0.33837034346E+01 0.34527170332E+01 0.34761240235E+01 0.34359000145E+01
 0.33261659661E+01 0.31590002338E+01 0.29616743403E+01 0.27696184495E+01 0.26180579387E+01
 0.25347106633E+01 0.25347086542E+01 0.26180508510E+01 0.27696060255E+01 0.32889321344E+01
 0.34013208005E+01 0.34728291324E+01 0.34911868050E+01 0.34584781693E+01 0.33867444552E+01
 0.32931703276E+01 0.31973603994E+01 0.31166580914E+01 0.30635260776E+01 0.30450628786E+01
 0.30635240377E+01 0.31166559689E+01 0.31973599165E+01 0.32931715153E+01 0.33867462271E+01
 0.34584792009E+01 0.34911856014E+01 0.34728245205E+01 0.34013134146E+01 0.32889248997E+01
 0.31590002338E+01 0.30394735483E+01 0.29559212172E+01 0.29259823432E+01 0.29559199761E+01
 0.30394736999E+01 0.31590041864E+01 0.34669025165E+01 0.35046112981E+01 0.35036305541E+01
 0.34634425167E+01 0.33910866047E+01 0.32998514875E+01 0.32057864459E+01 0.31234709732E+01
 0.30635260776E+01 0.30322007086E+01 0.30322004810E+01 0.30635248146E+01 0.31234679520E+01
 0.32057831198E+01 0.32998523729E+01 0.33910956818E+01 0.34634570385E+01 0.35036399696E+01
 0.35046057470E+01 0.34668835381E+01 0.34013134146E+01 0.33261659661E+01 0.32616901825E+01
 0.32247264005E+01 0.32247234085E+01 0.32616873659E+01 0.33261738487E+01 0.34013328041E+01
 0.35181835589E+01 0.35049279773E+01 0.34621797725E+01 0.33938043734E+01 0.33096417936E+01
 0.32223515803E+01 0.31438749619E+01 0.30830556342E+01 0.30450628786E+01 0.30322004810E+01
 0.30450636106E+01 0.30830566085E+01 0.31438755602E+01 0.32223517043E+01 0.33096423635E+01
 0.33938068999E+01 0.34621848281E+01 0.35049339123E+01 0.35181872631E+01 0.35046057470E+01
 0.34728245205E+01 0.34359000145E+01 0.34071842751E+01 0.33964298797E+01 0.34071871815E+01
 0.34359046933E+01 0.34728285005E+01 0.35046062906E+01 0.34879890564E+01 0.34495902037E+01
 0.33916242715E+01 0.33207236981E+01 0.32462160444E+01 0.31774457953E+01 0.31216335413E+01
 0.30830537414E+01 0.30635240377E+01 0.30635248146E+01 0.30830566085E+01 0.31216381828E+01
 0.31774484873E+01 0.32462118179E+01 0.33207127837E+01 0.33916152174E+01 0.34495936900E+01
 0.34880070881E+01 0.35049339123E+01 0.35036399696E+01 0.34911856014E+01 0.34761240235E+01
 0.34662814195E+01 0.34662871911E+01 0.34761351029E+01 0.34911889330E+01 0.35036278345E+01
 0.35049117149E+01 0.34227391507E+01 0.33819514223E+01 0.33308881767E+01 0.32755445103E+01
 0.32225388991E+01 0.31774500792E+01 0.31438760955E+01 0.31234678644E+01 0.31166559689E+01
 0.31234679520E+01 0.31438755602E+01 0.31774484873E+01 0.32225365897E+01 0.32755421953E+01
 0.33308867358E+01 0.33819521243E+01 0.34227430999E+01 0.34495936900E+01 0.34621848281E+01
 0.34634570385E+01 0.34584792009E+01 0.34527170332E+01 0.34502893207E+01 0.34527177636E+01
 0.34584784909E+01 0.34634529767E+01 0.34621780385E+01 0.34495870183E+01 0.33637960211E+01
 0.33380410005E+01 0.33073882728E+01 0.32755385322E+01 0.32462157291E+01 0.32223578316E+01
 0.32057866856E+01 0.31973607766E+01 0.31973599165E+01 0.32057831198E+01 0.32223517043E+01
 0.32462118179E+01 0.32755421953E+01 0.33073974823E+01 0.33380460633E+01 0.33637896018E+01
 0.33819521243E+01 0.33916152174E+01 0.33938068999E+01 0.33910956818E+01 0.33867462271E+01
 0.33837034346E+01 0.33836997404E+01 0.33867371979E+01 0.33910874761E+01 0.33938071257E+01
 0.33916261176E+01 0.33819663530E+01 0.33406309201E+01 0.33380512132E+01 0.33308912641E+01
 0.33207152153E+01 0.33096419051E+01 0.32998500611E+01 0.32931695298E+01 0.32908039575E+01
 0.32931715153E+01 0.32998523729E+01 0.33096423635E+01 0.33207127837E+01 0.33308867358E+01
 0.33380460633E+01 0.33406257869E+01 0.33380460633E+01 0.33308867358E+01 0.33207127837E+01
 0.33096423635E+01 0.32998523729E+01 0.32931715153E+01 0.32908039575E+01 0.32931695298E+01
 0.32998500611E+01 0.33096419051E+01 0.33207152153E+01 0.33308912641E+01 0.33380512132E+01
 0.33637960211E+01 0.33819663530E+01 0.33916261176E+01 0.33938071257E+01 0.33910874761E+01
 0.33867371979E+01 0.33836997404E+01 0.33837034346E+01 0.33867462271E+01 0.33910956818E+01
 0.33938068999E+01 0.33916152174E+01 0.33819521243E+01 0.33637896018E+01 0.33380460633E+01
 0.33073974823E+01 0.32755421953E+01 0.32462118179E+01 0.32223517043E+01 0.32057831198E+01
 0.31973599165E+01 0.31973607766E+01 0.32057866856E+01 0.32223578316E+01 0.32462157291E+01
 0.32755385322E+01 0.33073882728E+01 0.33380410005E+01 0.34227391507E+01 0.34495870183E+01
 0.34621780385E+01 0.34634529767E+01 0.34584784909E+01 0.34527177636E+01 0.34502893207E+01
 0.34527170332E+01 0.34584792009E+01 0.34634570385E+01 0.34621848281E+01 0.34495936900E+01
 0.34227430999E+01 0.33819521243E+01 0.33308867358E+01 0.32755421953E+01 0.32225365897E+01
 0.31774484873E+01 0.31438755602E+01 0.31234679520E+01 0.31166559689E+01 0.31234678644E+01
 0.31438760955E+01 0.31774500792E+01 0.32225388991E+01 0.32755445103E+01 0.33308881767E+01
 0.33819514223E+01 0.34879890564E+01 0.35049117149E+01 0.35036278345E+01 0.34911889330E+01
 0.34761351029E+01 0.34662871911E+01 0.34662814195E+01 0.34761240235E+01 0.34911856014E+01
 0.35036399696E+01 0.35049339123E+01 0.34880070881E+01 0.34495936900E+01 0.33916152174E+01
 0.33207127837E+01 0.32462118179E+01 0.31774484873E+01 0.31216381828E+01 0.30830566085E+01
 0.30635248146E+01 0.30635240377E+01 0.30830537414E+01 0.31216335413E+01 0.31774457953E+01
 0.32462160444E+01 0.33207236981E+01 0.33916242715E+01 0.34495902037E+01 0.35181835589E+01
 0.35046062906E+01 0.34728285005E+01 0.34359046933E+01 0.34071871815E+01 0.33964298797E+01
 0.34071842751E+01 0.34359000145E+01 0.34728245205E+01 0.35046057470E+01 0.35181872631E+01
 0.35049339123E+01 0.34621848281E+01 0.33938068999E+01 0.33096423635E+01 0.32223517043E+01
 0.31438755602E+01 0.30830566085E+01 0.30450636106E+01 0.30322004810E+01 0.30450628786E+01
 0.30830556342E+01 0.31438749619E+01 0.32223515803E+01 0.33096417936E+01 0.33938043734E+01
 0.34621797725E+01 0.35049279773E+01 0.34669025165E+01 0.34013328041E+01 0.33261738487E+01
 0.32616873659E+01 0.32247234085E+01 0.32247264005E+01 0.32616901825E+01 0.33261659661E+01
 0.34013134146E+01 0.34668835381E+01 0.35046057470E+01 0.35036399696E+01 0.34634570385E+01
 0.33910956818E+01 0.32998523729E+01 0.32057831198E+01 0.31234679520E+01 0.30635248146E+01
 0.30322004810E+01 0.30322007086E+01 0.30635260776E+01 0.31234709732E+01 0.32057864459E+01
 0.32998514875E+01 0.33910866047E+01 0.34634425167E+01 0.35036305541E+01 0.35046112981E+01
 0.32889321344E+01 0.31590041864E+01 0.30394736999E+01 0.29559199761E+01 0.29259823432E+01
 0.29559212172E+01 0.30394735483E+01 0.31590002338E+01 0.32889248997E+01 0.34013134146E+01
 0.34728245205E+01 0.34911856014E+01 0.34584792009E+01 0.33867462271E+01 0.32931715153E+01
 0.31973599165E+01 0.31166559689E+01 0.30635240377E+01 0.30450628786E+01 0.30635260776E+01
 0.31166580914E+01 0.31973603994E+01 0.32931703276E+01 0.33867444552E+01 0.34584781693E+01
 0.34911868050E+01 0.34728291324E+01 0.34013208005E+01 0.29616614158E+01 0.27696060255E+01
 0.26180508510E+01 0.25347086542E+01 0.25347106633E+01 0.26180579387E+01 0.27696184495E+01
 0.29616743403E+01 0.31590002338E+01 0.33261659661E+01 0.34359000145E+01 0.34761240235E+01
 0.34527170332E+01 0.33837034346E+01 0.32908039575E+01 0.31973607766E+01 0.31234678644E+01
 0.30830537414E+01 0.30830556342E+01 0.31234709732E+01 0.31973603994E+01 0.32907991435E+01
 0.33836993730E+01 0.34527207201E+01 0.34761368974E+01 0.34359151021E+01 0.33261731980E+01
 0.31589951453E+01 0.24936753564E+01 0.22563518172E+01 0.20964750201E+01 0.20401313807E+01
 0.20964786323E+01 0.22563596395E+01 0.24936853440E+01 0.27696184495E+01 0.30394735483E+01
 0.32616901825E+01 0.34071842751E+01 0.34662814195E+01 0.34502893207E+01 0.33836997404E+01
 0.32931695298E+01 0.32057866856E+01 0.31438760955E+01 0.31216335413E+01 0.31438749619E+01
 0.32057864459E+01 0.32931703276E+01 0.33836993730E+01 0.34502876618E+01 0.34662820595E+01
 0.34071894989E+01 0.32616963716E+01 0.30394743171E+01 0.27696117518E+01 0.19235487070E+01
 0.16694458401E+01 0.15321575807E+01 0.15321525559E+01 0.16694360249E+01 0.19235435353E+01
 0.22563596395E+01 0.26180579387E+01 0.29559212172E+01 0.32247264005E+01 0.33964298797E+01
 0.34662871911E+01 0.34527177636E+01 0.33867371979E+01 0.32998500611E+01 0.32223578316E+01
 0.31774500792E+01 0.31774457953E+01 0.32223515803E+01 0.32998514875E+01 0.33867444552E+01
 0.34527207201E+01 0.34662820595E+01 0.33964226072E+01 0.32247220422E+01 0.29559177837E+01
 0.26180531180E+01 0.22563573233E+01 0.13130438127E+01 0.10773247924E+01 0.99499276951E+00
 0.10773272780E+01 0.13130441817E+01 0.16694360249E+01 0.20964786323E+01 0.25347106633E+01
 0.29259823432E+01 0.32247234085E+01 0.34071871815E+01 0.34761351029E+01 0.34584784909E+01
 0.33910874761E+01 0.33096419051E+01 0.32462157291E+01 0.32225388991E+01 0.32462160444E+01
 0.33096417936E+01 0.33910866047E+01 0.34584781693E+01 0.34761368974E+01 0.34071894989E+01
 0.32247220422E+01 0.29259764987E+01 0.25347055152E+01 0.20964786110E+01 0.16694384289E+01
 0.73643352000E+00 0.55435883375E+00 0.55437055277E+00 0.73645318837E+00 0.10773272780E+01
 0.15321525559E+01 0.20401313807E+01 0.25347086542E+01 0.29559199761E+01 0.32616873659E+01
 0.34359046933E+01 0.34911889330E+01 0.34634529767E+01 0.33938071257E+01 0.33207152153E+01
 0.32755385322E+01 0.32755445103E+01 0.33207236981E+01 0.33938043734E+01 0.34634425167E+01
 0.34911868050E+01 0.34359151021E+01 0.32616963716E+01 0.29559177837E+01 0.25347055152E+01
 0.20401403552E+01 0.15321653936E+01 0.10773239172E+01 0.26657822511E+00 0.16672690209E+00
 0.26656175887E+00 0.55437055277E+00 0.99499276951E+00 0.15321575807E+01 0.20964750201E+01
 0.26180508510E+01 0.30394736999E+01 0.33261738487E+01 0.34728285005E+01 0.35036278345E+01
 0.34621780385E+01 0.33916261176E+01 0.33308912641E+01 0.33073882728E+01 0.33308881767E+01
 0.33916242715E+01 0.34621797725E+01 0.35036305541E+01 0.34728291324E+01 0.33261731980E+01
 0.30394743171E+01 0.26180531180E+01 0.20964786110E+01 0.15321653936E+01 0.99500882918E+00
 0.55439241057E+00 -.38674789320E-01 -.38703101818E-01 0.16672690209E+00 0.55435883375E+00
 0.10773247924E+01 0.16694458401E+01 0.22563518172E+01 0.27696060255E+01 0.31590041864E+01
 0.34013328041E+01 0.35046062906E+01 0.35049117149E+01 0.34495870183E+01 0.33819663530E+01
 0.33380512132E+01 0.33380410005E+01 0.33819514223E+01 0.34495902037E+01 0.35049279773E+01
 0.35046112981E+01 0.34013208005E+01 0.31589951453E+01 0.27696117518E+01 0.22563573233E+01
 0.16694384289E+01 0.10773239172E+01 0.55439241057E+00 0.16678286449E+00 -.38675392006E-01
 0.16678181770E+00 0.55439168440E+00 0.10773235717E+01 0.16694379439E+01 0.22563567825E+01
 0.27696116933E+01 0.31589954077E+01 0.34013207341E+01 0.35046109747E+01 0.35049280060E+01
 0.34495905157E+01 0.33819514327E+01 0.33380408019E+01 0.33380514021E+01 0.33819668350E+01
 0.34495871839E+01 0.35049116391E+01 0.35046065637E+01 0.34013333431E+01 0.31590044154E+01
 0.27696060663E+01 0.22563522906E+01 0.16694466378E+01 0.10773252352E+01 0.55435888265E+00
 0.16672702911E+00 -.38703053600E-01 0.16678181770E+00 0.46222467483E+00 0.91474205525E+00
 0.14668889753E+01 0.20478439531E+01 0.25863015071E+01 0.30235720872E+01 0.33239130599E+01
 0.34810306408E+01 0.35186548786E+01 0.34809693946E+01 0.34121685449E+01 0.33520020833E+01
 0.33286007337E+01 0.33520063631E+01 0.34121709168E+01 0.34809670068E+01 0.35186513511E+01
 0.34810289178E+01 0.33239124332E+01 0.30235749500E+01 0.25863140690E+01 0.20478617889E+01
 0.14668878624E+01 0.91469776794E+00 0.46214703266E+00 0.16671943487E+00 0.64291517976E-01
 0.55439168440E+00 0.91474205525E+00 0.13960892377E+01 0.19348816397E+01 0.24617669794E+01
 0.29142345404E+01 0.32478601517E+01 0.34444569858E+01 0.35153264404E+01 0.34966524763E+01
 0.34316041776E+01 0.33602049539E+01 0.33153721723E+01 0.33153660476E+01 0.33601964137E+01
 0.34316073701E+01 0.34966631398E+01 0.35153271836E+01 0.34444443870E+01 0.32478529018E+01
 0.29142475611E+01 0.24617872540E+01 0.19348815004E+01 0.13960597720E+01 0.91470163867E+00
 0.55436273849E+00 0.36200757470E+00 0.36201714006E+00 0.10773235717E+01 0.14668889753E+01
 0.19348816397E+01 0.24177444787E+01 0.28534658654E+01 0.31929702124E+01 0.34093939265E+01
 0.35032337652E+01 0.35008865749E+01 0.34416932561E+01 0.33635589340E+01 0.33008525439E+01
 0.32771788455E+01 0.33008529551E+01 0.33635597351E+01 0.34416942575E+01 0.35008868408E+01
 0.35032323396E+01 0.34093919936E+01 0.31929703899E+01 0.28534677758E+01 0.24177441075E+01
 0.19348779352E+01 0.14668874664E+01 0.10773287083E+01 0.81996359359E+00 0.73010267930E+00
 0.81995670799E+00 0.16694379439E+01 0.20478439531E+01 0.24617669794E+01 0.28534658654E+01
 0.31730476744E+01 0.33883231316E+01 0.34913780694E+01 0.34992868446E+01 0.34453518849E+01
 0.33637401157E+01 0.32874577058E+01 0.32423626410E+01 0.32423688123E+01 0.32874669227E+01
 0.33637388320E+01 0.34453425778E+01 0.34992828617E+01 0.34913829429E+01 0.33883274837E+01
 0.31730465345E+01 0.28534670509E+01 0.24617775746E+01 0.20478572619E+01 0.16694417170E+01
 0.13813628771E+01 0.12259032210E+01 0.12259078256E+01 0.13813692211E+01 0.22563567825E+01
 0.25863015071E+01 0.29142345404E+01 0.31929702124E+01 0.33883231316E+01 0.34865903041E+01
 0.34969808870E+01 0.34458378683E+01 0.33625608739E+01 0.32769826325E+01 0.32145540002E+01
 0.31918484904E+01 0.32145566223E+01 0.32769841339E+01 0.33625589180E+01 0.34458340743E+01
 0.34969780551E+01 0.34865899258E+01 0.33883263406E+01 0.31929780675E+01 0.29142452250E+01
 0.25863092322E+01 0.22563563294E+01 0.19748430037E+01 0.17858870471E+01 0.17193862351E+01
 0.17858942402E+01 0.19748504921E+01 0.27696116933E+01 0.30235720872E+01 0.32478601517E+01
 0.34093939265E+01 0.34913780694E+01 0.34969808870E+01 0.34456856348E+01 0.33615371856E+01
 0.32704170406E+01 0.31956411707E+01 0.31539689385E+01 0.31539665230E+01 0.31956374914E+01
 0.32704175891E+01 0.33615413965E+01 0.34456876101E+01 0.34969772443E+01 0.34913714447E+01
 0.34093883096E+01 0.32478565522E+01 0.30235708895E+01 0.27696159138E+01 0.25276021157E+01
 0.23386429516E+01 0.22352317333E+01 0.22352251650E+01 0.23386286655E+01 0.25275903677E+01
 0.31589954077E+01 0.33239130599E+01 0.34444569858E+01 0.35032337652E+01 0.34992868446E+01
 0.34458378683E+01 0.33615371856E+01 0.32681922911E+01 0.31861806082E+01 0.31308846133E+01
 0.31114553303E+01 0.31308820800E+01 0.31861788579E+01 0.32681944753E+01 0.33615425621E+01
 0.34458411927E+01 0.34992818918E+01 0.35032189749E+01 0.34444386691E+01 0.33239021207E+01
 0.31589991321E+01 0.29791532038E+01 0.28184199729E+01 0.27076836067E+01 0.26682417448E+01
 0.27076711159E+01 0.28184005876E+01 0.29791369176E+01 0.34013207341E+01 0.34810306408E+01
 0.35153264404E+01 0.35008865749E+01 0.34453518849E+01 0.33625608739E+01 0.32704170406E+01
 0.31861806082E+01 0.31231744279E+01 0.30897510998E+01 0.30897506211E+01 0.31231731932E+01
 0.31861791783E+01 0.32704163429E+01 0.33625619357E+01 0.34453546136E+01 0.35008886182E+01
 0.35153244922E+01 0.34810238783E+01 0.34013124053E+01 0.32921177715E+01 0.31774880171E+01
 0.30831101953E+01 0.30300426991E+01 0.30300414430E+01 0.30831080542E+01 0.31774885193E+01
 0.32921230733E+01 0.35046109747E+01 0.35186548786E+01 0.34966524763E+01 0.34416932561E+01
 0.33637401157E+01 0.32769826325E+01 0.31956411707E+01 0.31308846133E+01 0.30897510998E+01
 0.30757109397E+01 0.30897508025E+01 0.31308829889E+01 0.31956375000E+01 0.32769790275E+01
 0.33637420281E+01 0.34417045993E+01 0.34966689744E+01 0.35186647858E+01 0.35046054974E+01
 0.34589857992E+01 0.33949277756E+01 0.33304468825E+01 0.32832288089E+01 0.32659595911E+01
 0.32832289984E+01 0.33304539716E+01 0.33949442631E+01 0.34590030778E+01 0.35049280060E+01
 0.34809693946E+01 0.34316041776E+01 0.33635589340E+01 0.32874577058E+01 0.32145540002E+01
 0.31539689385E+01 0.31114553303E+01 0.30897506211E+01 0.30897508025E+01 0.31114558517E+01
 0.31539697095E+01 0.32145548689E+01 0.32874586972E+01 0.33635606662E+01 0.34316077115E+01
 0.34809750090E+01 0.35049340395E+01 0.35029348821E+01 0.34803867611E+01 0.34471958167E+01
 0.34156692814E+01 0.33967342690E+01 0.33967358704E+01 0.34156731393E+01 0.34471994041E+01
 0.34803872723E+01 0.35029312877E+01 0.34495905157E+01 0.34121685449E+01 0.33602049539E+01
 0.33008525439E+01 0.32423626410E+01 0.31918484904E+01 0.31539665230E+01 0.31308820800E+01
 0.31231731932E+01 0.31308829889E+01 0.31539697095E+01 0.31918535950E+01 0.32423654626E+01
 0.33008480370E+01 0.33601937819E+01 0.34121595252E+01 0.34495937759E+01 0.34686574753E+01
 0.34700559105E+01 0.34587552406E+01 0.34423211540E+01 0.34285217834E+01 0.34231986307E+01
 0.34285283079E+01 0.34423242417E+01 0.34587459738E+01 0.34700367922E+01 0.34686409904E+01
 0.33819514327E+01 0.33520020833E+01 0.33153721723E+01 0.32771788455E+01 0.32423688123E+01
 0.32145566223E+01 0.31956374914E+01 0.31861788579E+01 0.31861791783E+01 0.31956375000E+01
 0.32145548689E+01 0.32423654626E+01 0.32771754947E+01 0.33153700139E+01 0.33520013166E+01
 0.33819522910E+01 0.34014276569E+01 0.34091398574E+01 0.34067039320E+01 0.33980996693E+01
 0.33884021663E+01 0.33822021440E+01 0.33822025593E+01 0.33884022680E+01 0.33980975413E+01
 0.34066994596E+01 0.34091350732E+01 0.34014246213E+01 0.33380408019E+01 0.33286007337E+01
 0.33153660476E+01 0.33008529551E+01 0.32874669227E+01 0.32769841339E+01 0.32704175891E+01
 0.32681944753E+01 0.32704163429E+01 0.32769790275E+01 0.32874586972E+01 0.33008480370E+01
 0.33153700139E+01 0.33286104653E+01 0.33380461511E+01 0.33417920270E+01 0.33392396637E+01
 0.33313166742E+01 0.33202876769E+01 0.33091841308E+01 0.33010268923E+01 0.32980338879E+01
 0.33010213745E+01 0.33091786093E+01 0.33202891702E+01 0.33313272308E+01 0.33392528661E+01
 0.33417978225E+01 0.33380514021E+01 0.33520063631E+01 0.33601964137E+01 0.33635597351E+01
 0.33637388320E+01 0.33625589180E+01 0.33615413965E+01 0.33615425621E+01 0.33625619357E+01
 0.33637420281E+01 0.33635606662E+01 0.33601937819E+01 0.33520013166E+01 0.33380461511E+01
 0.33184954080E+01 0.32947329978E+01 0.32691047561E+01 0.32443990541E+01 0.32232952568E+01
 0.32079748929E+01 0.31999361257E+01 0.31999351842E+01 0.32079732198E+01 0.32232950846E+01
 0.32444014026E+01 0.32691087011E+01 0.32947372558E+01 0.33184999336E+01 0.33819668350E+01
 0.34121709168E+01 0.34316073701E+01 0.34416942575E+01 0.34453425778E+01 0.34458340743E+01
 0.34456876101E+01 0.34458411927E+01 0.34453546136E+01 0.34417045993E+01 0.34316077115E+01
 0.34121595252E+01 0.33819522910E+01 0.33417920270E+01 0.32947329978E+01 0.32453864689E+01
 0.31987685901E+01 0.31591722766E+01 0.31295178003E+01 0.31113444168E+01 0.31052440891E+01
 0.31113466282E+01 0.31295215166E+01 0.31591742071E+01 0.31987647822E+01 0.32453782481E+01
 0.32947285114E+01 0.33417984581E+01 0.34495871839E+01 0.34809670068E+01 0.34966631398E+01
 0.35008868408E+01 0.34992828617E+01 0.34969780551E+01 0.34969772443E+01 0.34992818918E+01
 0.35008886182E+01 0.34966689744E+01 0.34809750090E+01 0.34495937759E+01 0.34014276569E+01
 0.33392396637E+01 0.32691047561E+01 0.31987685901E+01 0.31356305268E+01 0.30852149215E+01
 0.30506713975E+01 0.30332564475E+01 0.30332562126E+01 0.30506709923E+01 0.30852149035E+01
 0.31356312257E+01 0.31987699970E+01 0.32691063278E+01 0.33392399248E+01 0.34014247184E+01
 0.35049116391E+01 0.35186513511E+01 0.35153271836E+01 0.35032323396E+01 0.34913829429E+01
 0.34865899258E+01 0.34913714447E+01 0.35032189749E+01 0.35153244922E+01 0.35186647858E+01
 0.35049340395E+01 0.34686574753E+01 0.34091398574E+01 0.33313166742E+01 0.32443990541E+01
 0.31591722766E+01 0.30852149215E+01 0.30291988062E+01 0.29946986539E+01 0.29830977122E+01
 0.29946965903E+01 0.30291949462E+01 0.30852121717E+01 0.31591754090E+01 0.32444088811E+01
 0.33313258295E+01 0.34091376020E+01 0.34686405349E+01 0.35046065637E+01 0.34810289178E+01
 0.34444443870E+01 0.34093919936E+01 0.33883274837E+01 0.33883263406E+01 0.34093883096E+01
 0.34444386691E+01 0.34810238783E+01 0.35046054974E+01 0.35029348821E+01 0.34700559105E+01
 0.34067039320E+01 0.33202876769E+01 0.32232952568E+01 0.31295178003E+01 0.30506713975E+01
 0.29946986539E+01 0.29658729258E+01 0.29658727027E+01 0.29946980512E+01 0.30506707925E+01
 0.31295177760E+01 0.32232956535E+01 0.33202869869E+01 0.34067006409E+01 0.34700508482E+01
 0.35029314292E+01 0.34013333431E+01 0.33239124332E+01 0.32478529018E+01 0.31929703899E+01
 0.31730465345E+01 0.31929780675E+01 0.32478565522E+01 0.33239021207E+01 0.34013124053E+01
 0.34589857992E+01 0.34803867611E+01 0.34587552406E+01 0.33980996693E+01 0.33091841308E+01
 0.32079748929E+01 0.31113444168E+01 0.30332564475E+01 0.29830977122E+01 0.29658727027E+01
 0.29830991187E+01 0.30332590444E+01 0.31113469148E+01 0.32079743420E+01 0.33091776600E+01
 0.33980886553E+01 0.34587474269E+01 0.34803913032E+01 0.34590038069E+01 0.31590044154E+01
 0.30235749500E+01 0.29142475611E+01 0.28534677758E+01 0.28534670509E+01 0.29142452250E+01
 0.30235708895E+01 0.31589991321E+01 0.32921177715E+01 0.33949277756E+01 0.34471958167E+01
 0.34423211540E+01 0.33884021663E+01 0.33010268923E+01 0.31999361257E+01 0.31052440891E+01
 0.30332562126E+01 0.29946965903E+01 0.29946980512E+01 0.30332590444E+01 0.31052454446E+01
 0.31999349876E+01 0.33010248110E+01 0.33884013050E+01 0.34423224629E+01 0.34471990778E+01
 0.33949324592E+01 0.32921232395E+01 0.27696060663E+01 0.25863140690E+01 0.24617872540E+01
 0.24177441075E+01 0.24617775746E+01 0.25863092322E+01 0.27696159138E+01 0.29791532038E+01
 0.31774880171E+01 0.33304468825E+01 0.34156692814E+01 0.34285217834E+01 0.33822021440E+01
 0.32980338879E+01 0.31999351842E+01 0.31113466282E+01 0.30506709923E+01 0.30291949462E+01
 0.30506707925E+01 0.31113469148E+01 0.31999349876E+01 0.32980320802E+01 0.33822018219E+01
 0.34285284204E+01 0.34156816803E+01 0.33304540809E+01 0.31774806261E+01 0.29791365742E+01
 0.22563522906E+01 0.20478617889E+01 0.19348815004E+01 0.19348779352E+01 0.20478572619E+01
 0.22563563294E+01 0.25276021157E+01 0.28184199729E+01 0.30831101953E+01 0.32832288089E+01
 0.33967342690E+01 0.34231986307E+01 0.33822025593E+01 0.33010213745E+01 0.32079732198E+01
 0.31295215166E+01 0.30852149035E+01 0.30852121717E+01 0.31295177760E+01 0.32079743420E+01
 0.33010248110E+01 0.33822018219E+01 0.34231946776E+01 0.33967344549E+01 0.32832343357E+01
 0.30831123616E+01 0.28184123519E+01 0.25275907583E+01 0.16694466378E+01 0.14668878624E+01
 0.13960597720E+01 0.14668874664E+01 0.16694417170E+01 0.19748430037E+01 0.23386429516E+01
 0.27076836067E+01 0.30300426991E+01 0.32659595911E+01 0.33967358704E+01 0.34285283079E+01
 0.33884022680E+01 0.33091786093E+01 0.32232950846E+01 0.31591742071E+01 0.31356312257E+01
 0.31591754090E+01 0.32232956535E+01 0.33091776600E+01 0.33884013050E+01 0.34285284204E+01
 0.33967344549E+01 0.32659530838E+01 0.30300332387E+01 0.27076790443E+01 0.23386475912E+01
 0.19748516743E+01 0.10773252352E+01 0.91469776794E+00 0.91470163867E+00 0.10773287083E+01
 0.13813628771E+01 0.17858870471E+01 0.22352317333E+01 0.26682417448E+01 0.30300414430E+01
 0.32832289984E+01 0.34156731393E+01 0.34423242417E+01 0.33980975413E+01 0.33202891702E+01
 0.32444014026E+01 0.31987647822E+01 0.31987699970E+01 0.32444088811E+01 0.33202869869E+01
 0.33980886553E+01 0.34423224629E+01 0.34156816803E+01 0.32832343357E+01 0.30300332387E+01
 0.26682293213E+01 0.22352312457E+01 0.17858980621E+01 0.13813700146E+01 0.55435888265E+00
 0.46214703266E+00 0.55436273849E+00 0.81996359359E+00 0.12259032210E+01 0.17193862351E+01
 0.22352251650E+01 0.27076711159E+01 0.30831080542E+01 0.33304539716E+01 0.34471994041E+01
 0.34587459738E+01 0.34066994596E+01 0.33313272308E+01 0.32691087011E+01 0.32453782481E+01
 0.32691063278E+01 0.33313258295E+01 0.34067006409E+01 0.34587474269E+01 0.34471990778E+01
 0.33304540809E+01 0.30831123616E+01 0.27076790443E+01 0.22352312457E+01 0.17193859253E+01
 0.12258974774E+01 0.81995700037E+00 0.16672702911E+00 0.16671943487E+00 0.36200757470E+00
 0.73010267930E+00 0.12259078256E+01 0.17858942402E+01 0.23386286655E+01 0.28184005876E+01
 0.31774885193E+01 0.33949442631E+01 0.34803872723E+01 0.34700367922E+01 0.34091350732E+01
 0.33392528661E+01 0.32947372558E+01 0.32947285114E+01 0.33392399248E+01 0.34091376020E+01
 0.34700508482E+01 0.34803913032E+01 0.33949324592E+01 0.31774806261E+01 0.28184123519E+01
 0.23386475912E+01 0.17858980621E+01 0.12258974774E+01 0.73009901877E+00 0.36201790567E+00
 -.38703053600E-01 0.64291517976E-01 0.36201714006E+00 0.81995670799E+00 0.13813692211E+01
 0.19748504921E+01 0.25275903677E+01 0.29791369176E+01 0.32921230733E+01 0.34590030778E+01
 0.35029312877E+01 0.34686409904E+01 0.34014246213E+01 0.33417978225E+01 0.33184999336E+01
 0.33417984581E+01 0.34014247184E+01 0.34686405349E+01 0.35029314292E+01 0.34590038069E+01
 0.32921232395E+01 0.29791365742E+01 0.25275907583E+01 0.19748516743E+01 0.13813700146E+01
 0.81995700037E+00 0.36201790567E+00 0.64292550873E-01 0.26657697715E+00 0.55439088817E+00
 0.99500825892E+00 0.15321655463E+01 0.20964784171E+01 0.26180527700E+01 0.30394747092E+01
 0.33261739233E+01 0.34728291330E+01 0.35036301654E+01 0.34621800611E+01 0.33916249493E+01
 0.33308882225E+01 0.33073879977E+01 0.33308916881E+01 0.33916269128E+01 0.34621781617E+01
 0.35036275918E+01 0.34728289254E+01 0.33261746467E+01 0.30394738719E+01 0.26180507293E+01
 0.20964756048E+01 0.15321584600E+01 0.99499276691E+00 0.55436984504E+00 0.26656131763E+00
 0.16672648006E+00 0.55439088817E+00 0.91474140212E+00 0.13960892321E+01 0.19348820061E+01
 0.24617671475E+01 0.29142346189E+01 0.32478605242E+01 0.34444574084E+01 0.35153264780E+01
 0.34966523920E+01 0.34316044580E+01 0.33602053824E+01 0.33153722838E+01 0.33153660553E+01
 0.33601967638E+01 0.34316078255E+01 0.34966632327E+01 0.35153271365E+01 0.34444446651E+01
 0.32478532912E+01 0.29142476072E+01 0.24617871612E+01 0.19348816713E+01 0.13960598989E+01
 0.91470118994E+00 0.55436192228E+00 0.36200691717E+00 0.36201655802E+00 0.99500825892E+00
 0.13960892321E+01 0.18782463713E+01 0.23765072496E+01 0.28275593554E+01 0.31811628815E+01