   1   1   1   0
  0.1647570E+02  0.2856185E-09  0.2856185E-09  0.2856185E-09  0.5000000E-15
   1.0000000000000000E-004
  CAR 
 Al                                      
     31.72210102     -5.12891113  301      8.04528946      1.00000000
     -5.129  0.0000E+00  0.0000E+00
     -5.006  0.0000E+00  0.0000E+00
     -4.883  0.0000E+00  0.0000E+00
     -4.760  0.0000E+00  0.0000E+00
     -4.638  0.0000E+00  0.0000E+00
     -4.515  0.0000E+00  0.0000E+00
     -4.392  0.0000E+00  0.0000E+00
     -4.269  0.0000E+00  0.0000E+00
     -4.146  0.0000E+00  0.0000E+00
     -4.023  0.0000E+00  0.0000E+00
     -3.901  0.0000E+00  0.0000E+00
     -3.778  0.0000E+00  0.0000E+00
     -3.655  0.0000E+00  0.0000E+00
     -3.532  0.0000E+00  0.0000E+00
     -3.409  0.0000E+00  0.0000E+00
     -3.286  0.0000E+00  0.0000E+00
     -3.164  0.0000E+00  0.0000E+00
     -3.041  0.3426E-01  0.1521E-02
     -2.918  0.5037E-01  0.6669E-02
     -2.795  0.6487E-01  0.1388E-01
     -2.672  0.7746E-01  0.2257E-01
     -2.549  0.8641E-01  0.3266E-01
     -2.427  0.9631E-01  0.4386E-01
     -2.304  0.1040E+00  0.5621E-01
     -2.181  0.1118E+00  0.6946E-01
     -2.058  0.1199E+00  0.8369E-01
     -1.935  0.1258E+00  0.9878E-01
     -1.812  0.1326E+00  0.1146E+00
     -1.689  0.1395E+00  0.1314E+00
     -1.567  0.1448E+00  0.1488E+00
     -1.444  0.1505E+00  0.1670E+00
     -1.321  0.1567E+00  0.1858E+00
     -1.198  0.1620E+00  0.2054E+00
     -1.075  0.1669E+00  0.2256E+00
     -0.952  0.1721E+00  0.2464E+00
     -0.830  0.1776E+00  0.2679E+00
     -0.707  0.1824E+00  0.2900E+00
     -0.584  0.1868E+00  0.3127E+00
     -0.461  0.1915E+00  0.3359E+00
     -0.338  0.1964E+00  0.3598E+00
     -0.215  0.2012E+00  0.3842E+00
     -0.093  0.2052E+00  0.4092E+00
      0.030  0.2095E+00  0.4346E+00
      0.153  0.2138E+00  0.4606E+00
      0.276  0.2184E+00  0.4872E+00
      0.399  0.2226E+00  0.5143E+00
      0.522  0.2265E+00  0.5418E+00
      0.644  0.2304E+00  0.5699E+00
      0.767  0.2344E+00  0.5984E+00
      0.890  0.2386E+00  0.6275E+00
      1.013  0.2428E+00  0.6571E+00
      1.136  0.2464E+00  0.6871E+00
      1.259  0.2501E+00  0.7176E+00
      1.381  0.2538E+00  0.7485E+00
      1.504  0.2577E+00  0.7800E+00
      1.627  0.2617E+00  0.8119E+00
      1.750  0.2655E+00  0.8443E+00
      1.873  0.2690E+00  0.8771E+00
      1.996  0.2725E+00  0.9103E+00
      2.118  0.2762E+00  0.9440E+00
      2.241  0.2799E+00  0.9782E+00
      2.364  0.2837E+00  0.1013E+01
      2.487  0.2875E+00  0.1048E+01
      2.610  0.2910E+00  0.1083E+01
      2.733  0.2947E+00  0.1119E+01
      2.855  0.2989E+00  0.1156E+01
      2.978  0.3045E+00  0.1193E+01
      3.101  0.3141E+00  0.1231E+01
      3.224  0.3315E+00  0.1271E+01
      3.347  0.3265E+00  0.1311E+01
      3.470  0.3297E+00  0.1351E+01
      3.592  0.3077E+00  0.1391E+01
      3.715  0.2977E+00  0.1428E+01
      3.838  0.3148E+00  0.1466E+01
      3.961  0.3105E+00  0.1504E+01
      4.084  0.3341E+00  0.1544E+01
      4.207  0.3212E+00  0.1584E+01
      4.330  0.3536E+00  0.1625E+01
      4.452  0.3654E+00  0.1669E+01
      4.575  0.3396E+00  0.1712E+01
      4.698  0.3549E+00  0.1754E+01
      4.821  0.3856E+00  0.1798E+01
      4.944  0.3746E+00  0.1844E+01
      5.067  0.4117E+00  0.1892E+01
      5.189  0.3887E+00  0.1940E+01
      5.312  0.3783E+00  0.1987E+01
      5.435  0.3780E+00  0.2034E+01
      5.558  0.3718E+00  0.2081E+01
      5.681  0.3590E+00  0.2125E+01
      5.804  0.3621E+00  0.2170E+01
      5.926  0.3597E+00  0.2214E+01
      6.049  0.3227E+00  0.2257E+01
      6.172  0.3431E+00  0.2298E+01
      6.295  0.3432E+00  0.2341E+01
      6.418  0.3331E+00  0.2382E+01
      6.541  0.3445E+00  0.2423E+01
      6.663  0.3733E+00  0.2467E+01
      6.786  0.3716E+00  0.2514E+01
      6.909  0.3896E+00  0.2560E+01
      7.032  0.4019E+00  0.2609E+01
      7.155  0.4175E+00  0.2660E+01
      7.278  0.4052E+00  0.2711E+01
      7.400  0.3929E+00  0.2760E+01
      7.523  0.3811E+00  0.2808E+01
      7.646  0.3594E+00  0.2853E+01
      7.769  0.3558E+00  0.2897E+01
      7.892  0.3761E+00  0.2942E+01
      8.015  0.3806E+00  0.2988E+01
      8.137  0.4315E+00  0.3037E+01
      8.260  0.4259E+00  0.3091E+01
      8.383  0.4250E+00  0.3144E+01
      8.506  0.4176E+00  0.3195E+01
      8.629  0.4250E+00  0.3247E+01
      8.752  0.4188E+00  0.3299E+01
      8.874  0.4133E+00  0.3350E+01
      8.997  0.4213E+00  0.3402E+01
      9.120  0.4230E+00  0.3454E+01
      9.243  0.4255E+00  0.3505E+01
      9.366  0.4295E+00  0.3558E+01
      9.489  0.4331E+00  0.3611E+01
      9.611  0.4386E+00  0.3665E+01
      9.734  0.4322E+00  0.3718E+01
      9.857  0.4354E+00  0.3771E+01
      9.980  0.4418E+00  0.3825E+01
     10.103  0.4455E+00  0.3880E+01
     10.226  0.4468E+00  0.3935E+01
     10.349  0.4534E+00  0.3990E+01
     10.471  0.4591E+00  0.4046E+01
     10.594  0.4558E+00  0.4102E+01
     10.717  0.4619E+00  0.4158E+01
     10.840  0.4675E+00  0.4216E+01
     10.963  0.4674E+00  0.4273E+01
     11.086  0.4682E+00  0.4330E+01
     11.208  0.4678E+00  0.4388E+01
     11.331  0.4734E+00  0.4446E+01
     11.454  0.4777E+00  0.4504E+01
     11.577  0.4816E+00  0.4563E+01
     11.700  0.4854E+00  0.4623E+01
     11.823  0.4872E+00  0.4682E+01
     11.945  0.4898E+00  0.4742E+01
     12.068  0.4926E+00  0.4803E+01
     12.191  0.4981E+00  0.4863E+01
     12.314  0.5048E+00  0.4925E+01
     12.437  0.5085E+00  0.4987E+01
     12.560  0.5112E+00  0.5050E+01
     12.682  0.5115E+00  0.5113E+01
     12.805  0.5148E+00  0.5176E+01
     12.928  0.5175E+00  0.5239E+01
     13.051  0.5257E+00  0.5303E+01
     13.174  0.5421E+00  0.5368E+01
     13.297  0.5540E+00  0.5436E+01
     13.419  0.5705E+00  0.5505E+01
     13.542  0.5921E+00  0.5576E+01
     13.665  0.6095E+00  0.5650E+01
     13.788  0.5910E+00  0.5724E+01
     13.911  0.5830E+00  0.5796E+01
     14.034  0.5776E+00  0.5867E+01
     14.156  0.5698E+00  0.5938E+01
     14.279  0.5590E+00  0.6007E+01
     14.402  0.5549E+00  0.6075E+01
     14.525  0.5496E+00  0.6143E+01
     14.648  0.5435E+00  0.6211E+01
     14.771  0.5374E+00  0.6277E+01
     14.893  0.5361E+00  0.6343E+01
     15.016  0.5316E+00  0.6408E+01
     15.139  0.5251E+00  0.6473E+01
     15.262  0.5244E+00  0.6538E+01
     15.385  0.5289E+00  0.6602E+01
     15.508  0.5312E+00  0.6668E+01
     15.630  0.5298E+00  0.6733E+01
     15.753  0.5282E+00  0.6798E+01
     15.876  0.5260E+00  0.6862E+01
     15.999  0.5255E+00  0.6927E+01
     16.122  0.5293E+00  0.6992E+01
     16.245  0.5315E+00  0.7057E+01
     16.368  0.5314E+00  0.7122E+01
     16.490  0.5306E+00  0.7188E+01
     16.613  0.5286E+00  0.7253E+01
     16.736  0.5257E+00  0.7317E+01
     16.859  0.5256E+00  0.7382E+01
     16.982  0.5259E+00  0.7446E+01
     17.105  0.5281E+00  0.7511E+01
     17.227  0.5316E+00  0.7576E+01
     17.350  0.5393E+00  0.7642E+01
     17.473  0.5472E+00  0.7709E+01
     17.596  0.5499E+00  0.7776E+01
     17.719  0.5525E+00  0.7844E+01
     17.842  0.5537E+00  0.7912E+01
     17.964  0.5570E+00  0.7980E+01
     18.087  0.5607E+00  0.8049E+01
     18.210  0.5630E+00  0.8118E+01
     18.333  0.5631E+00  0.8187E+01
     18.456  0.5650E+00  0.8256E+01
     18.579  0.5693E+00  0.8326E+01
     18.701  0.5722E+00  0.8396E+01
     18.824  0.5775E+00  0.8466E+01
     18.947  0.5962E+00  0.8538E+01
     19.070  0.6280E+00  0.8614E+01
     19.193  0.6444E+00  0.8692E+01
     19.316  0.6534E+00  0.8772E+01
     19.438  0.6598E+00  0.8852E+01
     19.561  0.6694E+00  0.8934E+01
     19.684  0.6827E+00  0.9017E+01
     19.807  0.6998E+00  0.9102E+01
     19.930  0.7066E+00  0.9188E+01
     20.053  0.7090E+00  0.9276E+01
     20.175  0.6786E+00  0.9361E+01
     20.298  0.6714E+00  0.9443E+01
     20.421  0.6903E+00  0.9527E+01
     20.544  0.6666E+00  0.9611E+01
     20.667  0.6724E+00  0.9692E+01
     20.790  0.5904E+00  0.9767E+01
     20.912  0.6142E+00  0.9841E+01
     21.035  0.6306E+00  0.9918E+01
     21.158  0.5913E+00  0.9992E+01
     21.281  0.5738E+00  0.1006E+02
     21.404  0.5681E+00  0.1013E+02
     21.527  0.5800E+00  0.1020E+02
     21.649  0.5886E+00  0.1028E+02
     21.772  0.5966E+00  0.1035E+02
     21.895  0.5819E+00  0.1042E+02
     22.018  0.5327E+00  0.1049E+02
     22.141  0.5283E+00  0.1055E+02
     22.264  0.5358E+00  0.1062E+02
     22.387  0.5473E+00  0.1069E+02
     22.509  0.5906E+00  0.1076E+02
     22.632  0.6412E+00  0.1083E+02
     22.755  0.6590E+00  0.1091E+02
     22.878  0.6308E+00  0.1099E+02
     23.001  0.6172E+00  0.1107E+02
     23.124  0.5618E+00  0.1114E+02
     23.246  0.5051E+00  0.1121E+02
     23.369  0.5222E+00  0.1127E+02
     23.492  0.5219E+00  0.1133E+02
     23.615  0.5170E+00  0.1140E+02
     23.738  0.4703E+00  0.1146E+02
     23.861  0.4067E+00  0.1151E+02
     23.983  0.3770E+00  0.1156E+02
     24.106  0.3824E+00  0.1161E+02
     24.229  0.2725E+00  0.1164E+02
     24.352  0.2324E+00  0.1168E+02
     24.475  0.2112E+00  0.1170E+02
     24.598  0.2007E+00  0.1173E+02
     24.720  0.1779E+00  0.1175E+02
     24.843  0.1591E+00  0.1177E+02
     24.966  0.1490E+00  0.1179E+02
     25.089  0.1404E+00  0.1181E+02
     25.212  0.1293E+00  0.1183E+02
     25.335  0.1273E+00  0.1184E+02
     25.457  0.1251E+00  0.1186E+02
     25.580  0.1140E+00  0.1187E+02
     25.703  0.1041E+00  0.1188E+02
     25.826  0.9948E-01  0.1190E+02
     25.949  0.9493E-01  0.1191E+02
     26.072  0.8915E-01  0.1192E+02
     26.194  0.8468E-01  0.1193E+02
     26.317  0.7975E-01  0.1194E+02
     26.440  0.7398E-01  0.1195E+02
     26.563  0.5734E-01  0.1196E+02
     26.686  0.3885E-01  0.1196E+02
     26.809  0.3485E-01  0.1197E+02
     26.931  0.3116E-01  0.1197E+02
     27.054  0.2783E-01  0.1198E+02
     27.177  0.2505E-01  0.1198E+02
     27.300  0.2305E-01  0.1198E+02
     27.423  0.2136E-01  0.1199E+02
     27.546  0.1944E-01  0.1199E+02
     27.668  0.1778E-01  0.1199E+02
     27.791  0.1611E-01  0.1199E+02
     27.914  0.1431E-01  0.1199E+02
     28.037  0.1248E-01  0.1200E+02
     28.160  0.1056E-01  0.1200E+02
     28.283  0.8329E-02  0.1200E+02
     28.406  0.2276E-02  0.1200E+02
     28.528  0.1675E-02  0.1200E+02
     28.651  0.1352E-02  0.1200E+02
     28.774  0.1033E-02  0.1200E+02
     28.897  0.7382E-03  0.1200E+02
     29.020  0.5348E-03  0.1200E+02
     29.143  0.3641E-03  0.1200E+02
     29.265  0.2261E-03  0.1200E+02
     29.388  0.1208E-03  0.1200E+02
     29.511  0.4829E-04  0.1200E+02
     29.634  0.8437E-05  0.1200E+02
     29.757  0.0000E+00  0.1200E+02
     29.880  0.0000E+00  0.1200E+02
     30.002  0.0000E+00  0.1200E+02
     30.125  0.0000E+00  0.1200E+02
     30.248  0.0000E+00  0.1200E+02
     30.371  0.0000E+00  0.1200E+02
     30.494  0.0000E+00  0.1200E+02
     30.617  0.0000E+00  0.1200E+02
     30.739  0.0000E+00  0.1200E+02
     30.862  0.0000E+00  0.1200E+02
     30.985  0.0000E+00  0.1200E+02
     31.108  0.0000E+00  0.1200E+02
     31.231  0.0000E+00  0.1200E+02
     31.354  0.0000E+00  0.1200E+02
     31.476  0.0000E+00  0.1200E+02
     31.599  0.0000E+00  0.1200E+02
     31.722  0.0000E+00  0.1200E+02
     31.72210102     -5.12891113  301      8.04528946      1.00000000
     -5.129  0.0000E+00  0.0000E+00  0.0000E+00  0.0000E+00  0.0000E+00  0.0000E+00  0.0000E+00  0.0000E+00  0.0000E+00
     -5.006  0.0000E+00  0.0000E+00  0.0000E+00  0.0000E+00  0.0000E+00  0.0000E+00  0.0000E+00  0.0000E+00  0.0000E+00
     -4.883  0.0000E+00  0.0000E+00  0.0000E+00  0.0000E+00  0.0000E+00  0.0000E+00  0.0000E+00  0.0000E+00  0.0000E+00
     -4.760  0.0000E+00  0.0000E+00  0.0000E+00  0.0000E+00  0.0000E+00  0.0000E+00  0.0000E+00  0.0000E+00  0.0000E+00
     -4.638  0.0000E+00  0.0000E+00  0.0000E+00  0.0000E+00  0.0000E+00  0.0000E+00  0.0000E+00  0.0000E+00  0.0000E+00
     -4.515  0.0000E+00  0.0000E+00  0.0000E+00  0.0000E+00  0.0000E+00  0.0000E+00  0.0000E+00  0.0000E+00  0.0000E+00
     -4.392  0.0000E+00  0.0000E+00  0.0000E+00  0.0000E+00  0.0000E+00  0.0000E+00  0.0000E+00  0.0000E+00  0.0000E+00
     -4.269  0.0000E+00  0.0000E+00  0.0000E+00  0.0000E+00  0.0000E+00  0.0000E+00  0.0000E+00  0.0000E+00  0.0000E+00
     -4.146  0.0000E+00  0.0000E+00  0.0000E+00  0.0000E+00  0.0000E+00  0.0000E+00  0.0000E+00  0.0000E+00  0.0000E+00
     -4.023  0.0000E+00  0.0000E+00  0.0000E+00  0.0000E+00  0.0000E+00  0.0000E+00  0.0000E+00  0.0000E+00  0.0000E+00
     -3.901  0.0000E+00  0.0000E+00  0.0000E+00  0.0000E+00  0.0000E+00  0.0000E+00  0.0000E+00  0.0000E+00  0.0000E+00
     -3.778  0.0000E+00  0.0000E+00  0.0000E+00  0.0000E+00  0.0000E+00  0.0000E+00  0.0000E+00  0.0000E+00  0.0000E+00
     -3.655  0.0000E+00  0.0000E+00  0.0000E+00  0.0000E+00  0.0000E+00  0.0000E+00  0.0000E+00  0.0000E+00  0.0000E+00
     -3.532  0.0000E+00  0.0000E+00  0.0000E+00  0.0000E+00  0.0000E+00  0.0000E+00  0.0000E+00  0.0000E+00  0.0000E+00
     -3.409  0.0000E+00  0.0000E+00  0.0000E+00  0.0000E+00  0.0000E+00  0.0000E+00  0.0000E+00  0.0000E+00  0.0000E+00
     -3.286  0.0000E+00  0.0000E+00  0.0000E+00  0.0000E+00  0.0000E+00  0.0000E+00  0.0000E+00  0.0000E+00  0.0000E+00
     -3.164  0.0000E+00  0.0000E+00  0.0000E+00  0.0000E+00  0.0000E+00  0.0000E+00  0.0000E+00  0.0000E+00  0.0000E+00
     -3.041  0.9201E-02  0.2143E-04  0.2143E-04  0.2143E-04  0.0000E+00  0.0000E+00  0.0000E+00  0.0000E+00  0.0000E+00
     -2.918  0.1339E-01  0.7611E-04  0.7611E-04  0.7611E-04  0.0000E+00  0.0000E+00  0.0000E+00  0.0000E+00  0.0000E+00
     -2.795  0.1709E-01  0.1515E-03  0.1515E-03  0.1515E-03  0.0000E+00  0.0000E+00  0.0000E+00  0.0000E+00  0.0000E+00
     -2.672  0.2024E-01  0.2380E-03  0.2380E-03  0.2380E-03  0.0000E+00  0.0000E+00  0.0000E+00  0.0000E+00  0.0000E+00
     -2.549  0.2235E-01  0.3450E-03  0.3450E-03  0.3450E-03  0.0000E+00  0.0000E+00  0.0000E+00  0.0000E+00  0.0000E+00
     -2.427  0.2469E-01  0.4550E-03  0.4550E-03  0.4550E-03  0.0000E+00  0.0000E+00  0.0000E+00  0.0000E+00  0.0000E+00
     -2.304  0.2638E-01  0.5833E-03  0.5833E-03  0.5833E-03  0.0000E+00  0.0000E+00  0.0000E+00  0.0000E+00  0.0000E+00
     -2.181  0.2810E-01  0.7156E-03  0.7156E-03  0.7156E-03  0.0000E+00  0.0000E+00  0.0000E+00  0.0000E+00  0.0000E+00
     -2.058  0.2989E-01  0.8523E-03  0.8523E-03  0.8523E-03  0.0000E+00  0.0000E+00  0.0000E+00  0.0000E+00  0.0000E+00
     -1.935  0.3101E-01  0.1009E-02  0.1009E-02  0.1009E-02  0.0000E+00  0.0000E+00  0.0000E+00  0.0000E+00  0.0000E+00
     -1.812  0.3237E-01  0.1164E-02  0.1164E-02  0.1164E-02  0.0000E+00  0.0000E+00  0.0000E+00  0.0000E+00  0.0000E+00
     -1.689  0.3375E-01  0.1323E-02  0.1323E-02  0.1323E-02  0.0000E+00  0.0000E+00  0.0000E+00  0.0000E+00  0.0000E+00
     -1.567  0.3465E-01  0.1502E-02  0.1502E-02  0.1502E-02  0.0000E+00  0.0000E+00  0.0000E+00  0.0000E+00  0.0000E+00
     -1.444  0.3565E-01  0.1680E-02  0.1680E-02  0.1680E-02  0.0000E+00  0.0000E+00  0.0000E+00  0.0000E+00  0.0000E+00
     -1.321  0.3678E-01  0.1857E-02  0.1857E-02  0.1857E-02  0.0000E+00  0.0000E+00  0.0000E+00  0.0000E+00  0.0000E+00
     -1.198  0.3762E-01  0.2049E-02  0.2049E-02  0.2049E-02  0.0000E+00  0.0000E+00  0.0000E+00  0.0000E+00  0.0000E+00
     -1.075  0.3833E-01  0.2248E-02  0.2248E-02  0.2248E-02  0.0000E+00  0.0000E+00  0.0000E+00  0.0000E+00  0.0000E+00
     -0.952  0.3912E-01  0.2447E-02  0.2447E-02  0.2447E-02  0.0000E+00  0.0000E+00  0.0000E+00  0.0000E+00  0.0000E+00
     -0.830  0.3999E-01  0.2646E-02  0.2646E-02  0.2646E-02  0.0000E+00  0.0000E+00  0.0000E+00  0.0000E+00  0.0000E+00
     -0.707  0.4061E-01  0.2860E-02  0.2860E-02  0.2860E-02  0.0000E+00  0.0000E+00  0.0000E+00  0.0000E+00  0.0000E+00
     -0.584  0.4113E-01  0.3081E-02  0.3081E-02  0.3081E-02  0.0000E+00  0.0000E+00  0.0000E+00  0.0000E+00  0.0000E+00
     -0.461  0.4171E-01  0.3301E-02  0.3301E-02  0.3301E-02  0.0000E+00  0.0000E+00  0.0000E+00  0.0000E+00  0.0000E+00
     -0.338  0.4233E-01  0.3521E-02  0.3521E-02  0.3521E-02  0.0000E+00  0.0000E+00  0.0000E+00  0.0000E+00  0.0000E+00
     -0.215  0.4291E-01  0.3746E-02  0.3746E-02  0.3746E-02  0.0000E+00  0.0000E+00  0.0000E+00  0.0000E+00  0.0000E+00
     -0.093  0.4323E-01  0.3988E-02  0.3988E-02  0.3988E-02  0.0000E+00  0.0000E+00  0.0000E+00  0.0000E+00  0.0000E+00
      0.030  0.4360E-01  0.4229E-02  0.4229E-02  0.4229E-02  0.0000E+00  0.0000E+00  0.0000E+00  0.0000E+00  0.0000E+00
      0.153  0.4401E-01  0.4470E-02  0.4470E-02  0.4470E-02  0.0000E+00  0.0000E+00  0.0000E+00  0.0000E+00  0.0000E+00
      0.276  0.4446E-01  0.4711E-02  0.4711E-02  0.4711E-02  0.0000E+00  0.0000E+00  0.0000E+00  0.0000E+00  0.0000E+00
      0.399  0.4481E-01  0.4961E-02  0.4961E-02  0.4961E-02  0.0000E+00  0.0000E+00  0.0000E+00  0.0000E+00  0.0000E+00
      0.522  0.4499E-01  0.5224E-02  0.5224E-02  0.5224E-02  0.0000E+00  0.0000E+00  0.0000E+00  0.0000E+00  0.0000E+00
      0.644  0.4519E-01  0.5487E-02  0.5487E-02  0.5487E-02  0.0000E+00  0.0000E+00  0.0000E+00  0.0000E+00  0.0000E+00
      0.767  0.4543E-01  0.5749E-02  0.5749E-02  0.5749E-02  0.0000E+00  0.0000E+00  0.0000E+00  0.0000E+00  0.0000E+00
      0.890  0.4569E-01  0.6012E-02  0.6012E-02  0.6012E-02  0.0000E+00  0.0000E+00  0.0000E+00  0.0000E+00  0.0000E+00
      1.013  0.4597E-01  0.6277E-02  0.6277E-02  0.6277E-02  0.0000E+00  0.0000E+00  0.0000E+00  0.0000E+00  0.0000E+00
      1.136  0.4597E-01  0.6564E-02  0.6564E-02  0.6564E-02  0.0000E+00  0.0000E+00  0.0000E+00  0.0000E+00  0.0000E+00
      1.259  0.4602E-01  0.6849E-02  0.6849E-02  0.6849E-02  0.0000E+00  0.0000E+00  0.0000E+00  0.0000E+00  0.0000E+00
      1.381  0.4608E-01  0.7136E-02  0.7136E-02  0.7136E-02  0.0000E+00  0.0000E+00  0.0000E+00  0.0000E+00  0.0000E+00
      1.504  0.4616E-01  0.7424E-02  0.7424E-02  0.7424E-02  0.0000E+00  0.0000E+00  0.0000E+00  0.0000E+00  0.0000E+00
      1.627  0.4625E-01  0.7713E-02  0.7713E-02  0.7713E-02  0.0000E+00  0.0000E+00  0.0000E+00  0.0000E+00  0.0000E+00
      1.750  0.4627E-01  0.8011E-02  0.8011E-02  0.8011E-02  0.0000E+00  0.0000E+00  0.0000E+00  0.0000E+00  0.0000E+00
      1.873  0.4613E-01  0.8325E-02  0.8325E-02  0.8325E-02  0.0000E+00  0.0000E+00  0.0000E+00  0.0000E+00  0.0000E+00
      1.996  0.4600E-01  0.8642E-02  0.8642E-02  0.8642E-02  0.0000E+00  0.0000E+00  0.0000E+00  0.0000E+00  0.0000E+00
      2.118  0.4588E-01  0.8962E-02  0.8962E-02  0.8962E-02  0.0000E+00  0.0000E+00  0.0000E+00  0.0000E+00  0.0000E+00
      2.241  0.4576E-01  0.9286E-02  0.9286E-02  0.9286E-02  0.0000E+00  0.0000E+00  0.0000E+00  0.0000E+00  0.0000E+00
      2.364  0.4564E-01  0.9616E-02  0.9616E-02  0.9616E-02  0.0000E+00  0.0000E+00  0.0000E+00  0.0000E+00  0.0000E+00
      2.487  0.4546E-01  0.9958E-02  0.9958E-02  0.9958E-02  0.0000E+00  0.0000E+00  0.0000E+00  0.0000E+00  0.0000E+00
      2.610  0.4505E-01  0.1033E-01  0.1033E-01  0.1033E-01  0.0000E+00  0.0000E+00  0.0000E+00  0.0000E+00  0.0000E+00
      2.733  0.4461E-01  0.1072E-01  0.1072E-01  0.1072E-01  0.0000E+00  0.0000E+00  0.0000E+00  0.0000E+00  0.0000E+00
      2.855  0.4416E-01  0.1116E-01  0.1116E-01  0.1116E-01  0.0000E+00  0.0000E+00  0.0000E+00  0.0000E+00  0.0000E+00
      2.978  0.4377E-01  0.1168E-01  0.1168E-01  0.1168E-01  0.0000E+00  0.0000E+00  0.0000E+00  0.0000E+00  0.0000E+00
      3.101  0.4372E-01  0.1239E-01  0.1239E-01  0.1239E-01  0.0000E+00  0.0000E+00  0.0000E+00  0.0000E+00  0.0000E+00
      3.224  0.4438E-01  0.1350E-01  0.1350E-01  0.1350E-01  0.0000E+00  0.0000E+00  0.0000E+00  0.0000E+00  0.0000E+00
      3.347  0.4260E-01  0.1358E-01  0.1358E-01  0.1358E-01  0.0000E+00  0.0000E+00  0.0000E+00  0.0000E+00  0.0000E+00
      3.470  0.4154E-01  0.1407E-01  0.1407E-01  0.1407E-01  0.0000E+00  0.0000E+00  0.0000E+00  0.0000E+00  0.0000E+00
      3.592  0.3814E-01  0.1331E-01  0.1331E-01  0.1331E-01  0.0000E+00  0.0000E+00  0.0000E+00  0.0000E+00  0.0000E+00
      3.715  0.3596E-01  0.1312E-01  0.1312E-01  0.1312E-01  0.0000E+00  0.0000E+00  0.0000E+00  0.0000E+00  0.0000E+00
      3.838  0.3705E-01  0.1410E-01  0.1410E-01  0.1410E-01  0.0000E+00  0.0000E+00  0.0000E+00  0.0000E+00  0.0000E+00
      3.961  0.3753E-01  0.1372E-01  0.1372E-01  0.1372E-01  0.0000E+00  0.0000E+00  0.0000E+00  0.0000E+00  0.0000E+00
      4.084  0.4146E-01  0.1454E-01  0.1454E-01  0.1454E-01  0.0000E+00  0.0000E+00  0.0000E+00  0.0000E+00  0.0000E+00
      4.207  0.3903E-01  0.1421E-01  0.1421E-01  0.1421E-01  0.0000E+00  0.0000E+00  0.0000E+00  0.0000E+00  0.0000E+00
      4.330  0.4335E-01  0.1558E-01  0.1558E-01  0.1558E-01  0.0000E+00  0.0000E+00  0.0000E+00  0.0000E+00  0.0000E+00
      4.452  0.4376E-01  0.1638E-01  0.1638E-01  0.1638E-01  0.0000E+00  0.0000E+00  0.0000E+00  0.0000E+00  0.0000E+00
      4.575  0.3937E-01  0.1558E-01  0.1558E-01  0.1558E-01  0.0000E+00  0.0000E+00  0.0000E+00  0.0000E+00  0.0000E+00
      4.698  0.4034E-01  0.1652E-01  0.1652E-01  0.1652E-01  0.0000E+00  0.0000E+00  0.0000E+00  0.0000E+00  0.0000E+00
      4.821  0.4528E-01  0.1773E-01  0.1773E-01  0.1773E-01  0.0000E+00  0.0000E+00  0.0000E+00  0.0000E+00  0.0000E+00
      4.944  0.3985E-01  0.1828E-01  0.1828E-01  0.1828E-01  0.0000E+00  0.0000E+00  0.0000E+00  0.0000E+00  0.0000E+00
      5.067  0.4309E-01  0.2034E-01  0.2034E-01  0.2034E-01  0.0000E+00  0.0000E+00  0.0000E+00  0.0000E+00  0.0000E+00
      5.189  0.3853E-01  0.1970E-01  0.1970E-01  0.1970E-01  0.0000E+00  0.0000E+00  0.0000E+00  0.0000E+00  0.0000E+00
      5.312  0.3787E-01  0.1907E-01  0.1907E-01  0.1907E-01  0.0000E+00  0.0000E+00  0.0000E+00  0.0000E+00  0.0000E+00
      5.435  0.3811E-01  0.1903E-01  0.1903E-01  0.1903E-01  0.0000E+00  0.0000E+00  0.0000E+00  0.0000E+00  0.0000E+00
      5.558  0.3690E-01  0.1883E-01  0.1883E-01  0.1883E-01  0.0000E+00  0.0000E+00  0.0000E+00  0.0000E+00  0.0000E+00
      5.681  0.3523E-01  0.1823E-01  0.1823E-01  0.1823E-01  0.0000E+00  0.0000E+00  0.0000E+00  0.0000E+00  0.0000E+00
      5.804  0.3497E-01  0.1852E-01  0.1852E-01  0.1852E-01  0.0000E+00  0.0000E+00  0.0000E+00  0.0000E+00  0.0000E+00
      5.926  0.3428E-01  0.1848E-01  0.1848E-01  0.1848E-01  0.0000E+00  0.0000E+00  0.0000E+00  0.0000E+00  0.0000E+00
      6.049  0.3288E-01  0.1606E-01  0.1606E-01  0.1606E-01  0.0000E+00  0.0000E+00  0.0000E+00  0.0000E+00  0.0000E+00
      6.172  0.3334E-01  0.1749E-01  0.1749E-01  0.1749E-01  0.0000E+00  0.0000E+00  0.0000E+00  0.0000E+00  0.0000E+00
      6.295  0.3282E-01  0.1764E-01  0.1764E-01  0.1764E-01  0.0000E+00  0.0000E+00  0.0000E+00  0.0000E+00  0.0000E+00
      6.418  0.3120E-01  0.1725E-01  0.1725E-01  0.1725E-01  0.0000E+00  0.0000E+00  0.0000E+00  0.0000E+00  0.0000E+00
      6.541  0.3166E-01  0.1782E-01  0.1782E-01  0.1782E-01  0.0000E+00  0.0000E+00  0.0000E+00  0.0000E+00  0.0000E+00
      6.663  0.3563E-01  0.1872E-01  0.1872E-01  0.1872E-01  0.0000E+00  0.0000E+00  0.0000E+00  0.0000E+00  0.0000E+00
      6.786  0.3626E-01  0.1829E-01  0.1829E-01  0.1829E-01  0.0000E+00  0.0000E+00  0.0000E+00  0.0000E+00  0.0000E+00
      6.909  0.3863E-01  0.1876E-01  0.1876E-01  0.1876E-01  0.0000E+00  0.0000E+00  0.0000E+00  0.0000E+00  0.0000E+00
      7.032  0.3792E-01  0.1953E-01  0.1953E-01  0.1953E-01  0.0000E+00  0.0000E+00  0.0000E+00  0.0000E+00  0.0000E+00
      7.155  0.4000E-01  0.1984E-01  0.1984E-01  0.1984E-01  0.0000E+00  0.0000E+00  0.0000E+00  0.0000E+00  0.0000E+00
      7.278  0.3651E-01  0.1971E-01  0.1971E-01  0.1971E-01  0.0000E+00  0.0000E+00  0.0000E+00  0.0000E+00  0.0000E+00
      7.400  0.3389E-01  0.1942E-01  0.1942E-01  0.1942E-01  0.0000E+00  0.0000E+00  0.0000E+00  0.0000E+00  0.0000E+00
      7.523  0.3278E-01  0.1875E-01  0.1875E-01  0.1875E-01  0.0000E+00  0.0000E+00  0.0000E+00  0.0000E+00  0.0000E+00
      7.646  0.2917E-01  0.1818E-01  0.1818E-01  0.1818E-01  0.0000E+00  0.0000E+00  0.0000E+00  0.0000E+00  0.0000E+00
      7.769  0.3143E-01  0.1751E-01  0.1751E-01  0.1751E-01  0.0000E+00  0.0000E+00  0.0000E+00  0.0000E+00  0.0000E+00
      7.892  0.3740E-01  0.1777E-01  0.1777E-01  0.1777E-01  0.0000E+00  0.0000E+00  0.0000E+00  0.0000E+00  0.0000E+00
      8.015  0.3939E-01  0.1777E-01  0.1777E-01  0.1777E-01  0.0000E+00  0.0000E+00  0.0000E+00  0.0000E+00  0.0000E+00
      8.137  0.4643E-01  0.1976E-01  0.1976E-01  0.1976E-01  0.0000E+00  0.0000E+00  0.0000E+00  0.0000E+00  0.0000E+00
      8.260  0.4488E-01  0.1964E-01  0.1964E-01  0.1964E-01  0.0000E+00  0.0000E+00  0.0000E+00  0.0000E+00  0.0000E+00
      8.383  0.4372E-01  0.1972E-01  0.1972E-01  0.1972E-01  0.0000E+00  0.0000E+00  0.0000E+00  0.0000E+00  0.0000E+00
      8.506  0.4204E-01  0.1953E-01  0.1953E-01  0.1953E-01  0.0000E+00  0.0000E+00  0.0000E+00  0.0000E+00  0.0000E+00
      8.629  0.4239E-01  0.1990E-01  0.1990E-01  0.1990E-01  0.0000E+00  0.0000E+00  0.0000E+00  0.0000E+00  0.0000E+00
      8.752  0.4122E-01  0.1971E-01  0.1971E-01  0.1971E-01  0.0000E+00  0.0000E+00  0.0000E+00  0.0000E+00  0.0000E+00
      8.874  0.4019E-01  0.1956E-01  0.1956E-01  0.1956E-01  0.0000E+00  0.0000E+00  0.0000E+00  0.0000E+00  0.0000E+00
      8.997  0.4069E-01  0.1999E-01  0.1999E-01  0.1999E-01  0.0000E+00  0.0000E+00  0.0000E+00  0.0000E+00  0.0000E+00
      9.120  0.3981E-01  0.2028E-01  0.2028E-01  0.2028E-01  0.0000E+00  0.0000E+00  0.0000E+00  0.0000E+00  0.0000E+00
      9.243  0.3907E-01  0.2055E-01  0.2055E-01  0.2055E-01  0.0000E+00  0.0000E+00  0.0000E+00  0.0000E+00  0.0000E+00
      9.366  0.4084E-01  0.2065E-01  0.2065E-01  0.2065E-01  0.0000E+00  0.0000E+00  0.0000E+00  0.0000E+00  0.0000E+00
      9.489  0.4177E-01  0.2078E-01  0.2078E-01  0.2078E-01  0.0000E+00  0.0000E+00  0.0000E+00  0.0000E+00  0.0000E+00
      9.611  0.4429E-01  0.2086E-01  0.2086E-01  0.2086E-01  0.0000E+00  0.0000E+00  0.0000E+00  0.0000E+00  0.0000E+00
      9.734  0.4401E-01  0.2056E-01  0.2056E-01  0.2056E-01  0.0000E+00  0.0000E+00  0.0000E+00  0.0000E+00  0.0000E+00
      9.857  0.4410E-01  0.2085E-01  0.2085E-01  0.2085E-01  0.0000E+00  0.0000E+00  0.0000E+00  0.0000E+00  0.0000E+00
      9.980  0.4446E-01  0.2128E-01  0.2128E-01  0.2128E-01  0.0000E+00  0.0000E+00  0.0000E+00  0.0000E+00  0.0000E+00
     10.103  0.4492E-01  0.2153E-01  0.2153E-01  0.2153E-01  0.0000E+00  0.0000E+00  0.0000E+00  0.0000E+00  0.0000E+00
     10.226  0.4533E-01  0.2165E-01  0.2165E-01  0.2165E-01  0.0000E+00  0.0000E+00  0.0000E+00  0.0000E+00  0.0000E+00
     10.349  0.4631E-01  0.2203E-01  0.2203E-01  0.2203E-01  0.0000E+00  0.0000E+00  0.0000E+00  0.0000E+00  0.0000E+00
     10.471  0.4693E-01  0.2244E-01  0.2244E-01  0.2244E-01  0.0000E+00  0.0000E+00  0.0000E+00  0.0000E+00  0.0000E+00
     10.594  0.4584E-01  0.2248E-01  0.2248E-01  0.2248E-01  0.0000E+00  0.0000E+00  0.0000E+00  0.0000E+00  0.0000E+00
     10.717  0.4611E-01  0.2298E-01  0.2298E-01  0.2298E-01  0.0000E+00  0.0000E+00  0.0000E+00  0.0000E+00  0.0000E+00
     10.840  0.4649E-01  0.2341E-01  0.2341E-01  0.2341E-01  0.0000E+00  0.0000E+00  0.0000E+00  0.0000E+00  0.0000E+00
     10.963  0.4637E-01  0.2354E-01  0.2354E-01  0.2354E-01  0.0000E+00  0.0000E+00  0.0000E+00  0.0000E+00  0.0000E+00
     11.086  0.4638E-01  0.2371E-01  0.2371E-01  0.2371E-01  0.0000E+00  0.0000E+00  0.0000E+00  0.0000E+00  0.0000E+00
     11.208  0.4646E-01  0.2383E-01  0.2383E-01  0.2383E-01  0.0000E+00  0.0000E+00  0.0000E+00  0.0000E+00  0.0000E+00
     11.331  0.4674E-01  0.2437E-01  0.2437E-01  0.2437E-01  0.0000E+00  0.0000E+00  0.0000E+00  0.0000E+00  0.0000E+00
     11.454  0.4626E-01  0.2485E-01  0.2485E-01  0.2485E-01  0.0000E+00  0.0000E+00  0.0000E+00  0.0000E+00  0.0000E+00
     11.577  0.4619E-01  0.2530E-01  0.2530E-01  0.2530E-01  0.0000E+00  0.0000E+00  0.0000E+00  0.0000E+00  0.0000E+00
     11.700  0.4576E-01  0.2575E-01  0.2575E-01  0.2575E-01  0.0000E+00  0.0000E+00  0.0000E+00  0.0000E+00  0.0000E+00
     11.823  0.4560E-01  0.2610E-01  0.2610E-01  0.2610E-01  0.0000E+00  0.0000E+00  0.0000E+00  0.0000E+00  0.0000E+00
     11.945  0.4547E-01  0.2648E-01  0.2648E-01  0.2648E-01  0.0000E+00  0.0000E+00  0.0000E+00  0.0000E+00  0.0000E+00
     12.068  0.4543E-01  0.2691E-01  0.2691E-01  0.2691E-01  0.0000E+00  0.0000E+00  0.0000E+00  0.0000E+00  0.0000E+00
     12.191  0.4561E-01  0.2750E-01  0.2750E-01  0.2750E-01  0.0000E+00  0.0000E+00  0.0000E+00  0.0000E+00  0.0000E+00
     12.314  0.4516E-01  0.2827E-01  0.2827E-01  0.2827E-01  0.0000E+00  0.0000E+00  0.0000E+00  0.0000E+00  0.0000E+00
     12.437  0.4455E-01  0.2881E-01  0.2881E-01  0.2881E-01  0.0000E+00  0.0000E+00  0.0000E+00  0.0000E+00  0.0000E+00
     12.560  0.4390E-01  0.2932E-01  0.2932E-01  0.2932E-01  0.0000E+00  0.0000E+00  0.0000E+00  0.0000E+00  0.0000E+00
     12.682  0.4344E-01  0.2977E-01  0.2977E-01  0.2977E-01  0.0000E+00  0.0000E+00  0.0000E+00  0.0000E+00  0.0000E+00
     12.805  0.4289E-01  0.3040E-01  0.3040E-01  0.3040E-01  0.0000E+00  0.0000E+00  0.0000E+00  0.0000E+00  0.0000E+00
     12.928  0.4239E-01  0.3103E-01  0.3103E-01  0.3103E-01  0.0000E+00  0.0000E+00  0.0000E+00  0.0000E+00  0.0000E+00
     13.051  0.4213E-01  0.3205E-01  0.3205E-01  0.3205E-01  0.0000E+00  0.0000E+00  0.0000E+00  0.0000E+00  0.0000E+00
     13.174  0.4187E-01  0.3406E-01  0.3406E-01  0.3406E-01  0.0000E+00  0.0000E+00  0.0000E+00  0.0000E+00  0.0000E+00
     13.297  0.4094E-01  0.3589E-01  0.3589E-01  0.3589E-01  0.0000E+00  0.0000E+00  0.0000E+00  0.0000E+00  0.0000E+00
     13.419  0.3999E-01  0.3812E-01  0.3812E-01  0.3812E-01  0.0000E+00  0.0000E+00  0.0000E+00  0.0000E+00  0.0000E+00
     13.542  0.3906E-01  0.4096E-01  0.4096E-01  0.4096E-01  0.0000E+00  0.0000E+00  0.0000E+00  0.0000E+00  0.0000E+00
     13.665  0.3783E-01  0.4347E-01  0.4347E-01  0.4347E-01  0.0000E+00  0.0000E+00  0.0000E+00  0.0000E+00  0.0000E+00
     13.788  0.3629E-01  0.4193E-01  0.4193E-01  0.4193E-01  0.0000E+00  0.0000E+00  0.0000E+00  0.0000E+00  0.0000E+00
     13.911  0.3502E-01  0.4144E-01  0.4144E-01  0.4144E-01  0.0000E+00  0.0000E+00  0.0000E+00  0.0000E+00  0.0000E+00
     14.034  0.3362E-01  0.4127E-01  0.4127E-01  0.4127E-01  0.0000E+00  0.0000E+00  0.0000E+00  0.0000E+00  0.0000E+00