   1   1   1   0
  0.1647570E+02  0.2856185E-09  0.2856185E-09  0.2856185E-09  0.5000000E-15
   1.0000000000000000E-004
  CAR 
 Al                                      
     25.38035071     -5.12877724  301      8.04548479      1.00000000
     -5.129  0.0000E+00  0.0000E+00
     -5.027  0.0000E+00  0.0000E+00
     -4.925  0.0000E+00  0.0000E+00
     -4.824  0.0000E+00  0.0000E+00
     -4.722  0.0000E+00  0.0000E+00
     -4.620  0.0000E+00  0.0000E+00
     -4.519  0.0000E+00  0.0000E+00
     -4.417  0.0000E+00  0.0000E+00
     -4.315  0.0000E+00  0.0000E+00
     -4.214  0.0000E+00  0.0000E+00
     -4.112  0.0000E+00  0.0000E+00
     -4.010  0.0000E+00  0.0000E+00
     -3.908  0.0000E+00  0.0000E+00
     -3.807  0.0000E+00  0.0000E+00
     -3.705  0.0000E+00  0.0000E+00
     -3.603  0.0000E+00  0.0000E+00
     -3.502  0.0000E+00  0.0000E+00
     -3.400  0.0000E+00  0.0000E+00
     -3.298  0.0000E+00  0.0000E+00
     -3.197  0.0000E+00  0.0000E+00
     -3.095  0.1608E-01  0.1819E-03
     -2.993  0.4682E-01  0.3242E-02
     -2.891  0.5441E-01  0.8045E-02
     -2.790  0.6531E-01  0.1421E-01
     -2.688  0.7564E-01  0.2135E-01
     -2.586  0.8367E-01  0.2950E-01
     -2.485  0.9135E-01  0.3840E-01
     -2.383  0.9966E-01  0.4812E-01
     -2.281  0.1053E+00  0.5854E-01
     -2.180  0.1118E+00  0.6958E-01
     -2.078  0.1188E+00  0.8131E-01
     -1.976  0.1238E+00  0.9364E-01
     -1.874  0.1290E+00  0.1065E+00
     -1.773  0.1348E+00  0.1199E+00
     -1.671  0.1403E+00  0.1339E+00
     -1.569  0.1447E+00  0.1484E+00
     -1.468  0.1494E+00  0.1634E+00
     -1.366  0.1544E+00  0.1788E+00
     -1.264  0.1595E+00  0.1948E+00
     -1.163  0.1634E+00  0.2112E+00
     -1.061  0.1675E+00  0.2280E+00
     -0.959  0.1718E+00  0.2452E+00
     -0.857  0.1763E+00  0.2629E+00
     -0.756  0.1807E+00  0.2811E+00
     -0.654  0.1842E+00  0.2997E+00
     -0.552  0.1880E+00  0.3186E+00
     -0.451  0.1919E+00  0.3379E+00
     -0.349  0.1960E+00  0.3576E+00
     -0.247  0.2001E+00  0.3778E+00
     -0.146  0.2035E+00  0.3983E+00
     -0.044  0.2069E+00  0.4192E+00
      0.058  0.2104E+00  0.4404E+00
      0.159  0.2141E+00  0.4620E+00
      0.261  0.2178E+00  0.4839E+00
      0.363  0.2215E+00  0.5063E+00
      0.465  0.2246E+00  0.5289E+00
      0.566  0.2279E+00  0.5520E+00
      0.668  0.2311E+00  0.5753E+00
      0.770  0.2345E+00  0.5990E+00
      0.871  0.2380E+00  0.6230E+00
      0.973  0.2415E+00  0.6474E+00
      1.075  0.2446E+00  0.6721E+00
      1.176  0.2476E+00  0.6971E+00
      1.278  0.2507E+00  0.7225E+00
      1.380  0.2538E+00  0.7481E+00
      1.482  0.2570E+00  0.7741E+00
      1.583  0.2602E+00  0.8004E+00
      1.685  0.2636E+00  0.8270E+00
      1.787  0.2665E+00  0.8540E+00
      1.888  0.2694E+00  0.8812E+00
      1.990  0.2723E+00  0.9088E+00
      2.092  0.2754E+00  0.9366E+00
      2.193  0.2784E+00  0.9648E+00
      2.295  0.2816E+00  0.9932E+00
      2.397  0.2848E+00  0.1022E+01
      2.499  0.2878E+00  0.1051E+01
      2.600  0.2907E+00  0.1081E+01
      2.702  0.2938E+00  0.1110E+01
      2.804  0.2970E+00  0.1140E+01
      2.905  0.3010E+00  0.1171E+01
      3.007  0.3063E+00  0.1202E+01
      3.109  0.3147E+00  0.1233E+01
      3.210  0.3307E+00  0.1266E+01
      3.312  0.3283E+00  0.1300E+01
      3.414  0.3289E+00  0.1333E+01
      3.515  0.3264E+00  0.1367E+01
      3.617  0.3052E+00  0.1398E+01
      3.719  0.2975E+00  0.1429E+01
      3.821  0.3200E+00  0.1461E+01
      3.922  0.3076E+00  0.1492E+01
      4.024  0.3303E+00  0.1525E+01
      4.126  0.3284E+00  0.1558E+01
      4.227  0.3227E+00  0.1591E+01
      4.329  0.3535E+00  0.1625E+01
      4.431  0.3595E+00  0.1661E+01
      4.532  0.3445E+00  0.1697E+01
      4.634  0.3422E+00  0.1732E+01
      4.736  0.3581E+00  0.1767E+01
      4.838  0.3959E+00  0.1805E+01
      4.939  0.3736E+00  0.1842E+01
      5.041  0.3944E+00  0.1881E+01
      5.143  0.3943E+00  0.1922E+01
      5.244  0.3837E+00  0.1961E+01
      5.346  0.3809E+00  0.2000E+01
      5.448  0.3751E+00  0.2039E+01
      5.549  0.3749E+00  0.2077E+01
      5.651  0.3574E+00  0.2114E+01
      5.753  0.3663E+00  0.2151E+01
      5.855  0.3597E+00  0.2188E+01
      5.956  0.3658E+00  0.2225E+01
      6.058  0.3178E+00  0.2260E+01
      6.160  0.3534E+00  0.2294E+01
      6.261  0.3456E+00  0.2329E+01
      6.363  0.3382E+00  0.2363E+01
      6.465  0.3360E+00  0.2398E+01
      6.566  0.3494E+00  0.2432E+01
      6.668  0.3740E+00  0.2469E+01
      6.770  0.3724E+00  0.2508E+01
      6.871  0.3806E+00  0.2545E+01
      6.973  0.3998E+00  0.2585E+01
      7.075  0.4112E+00  0.2626E+01
      7.177  0.4216E+00  0.2669E+01
      7.278  0.4052E+00  0.2711E+01
      7.380  0.4042E+00  0.2752E+01
      7.482  0.3845E+00  0.2792E+01
      7.583  0.3696E+00  0.2831E+01
      7.685  0.3519E+00  0.2867E+01
      7.787  0.3581E+00  0.2903E+01
      7.888  0.3748E+00  0.2940E+01
      7.990  0.3783E+00  0.2979E+01
      8.092  0.4241E+00  0.3018E+01
      8.194  0.4500E+00  0.3062E+01
      8.295  0.4252E+00  0.3106E+01
      8.397  0.4242E+00  0.3150E+01
      8.499  0.4173E+00  0.3192E+01
      8.600  0.4226E+00  0.3235E+01
      8.702  0.4271E+00  0.3278E+01
      8.804  0.4144E+00  0.3321E+01
      8.905  0.4149E+00  0.3363E+01
      9.007  0.4218E+00  0.3406E+01
      9.109  0.4239E+00  0.3449E+01
      9.211  0.4238E+00  0.3492E+01
      9.312  0.4288E+00  0.3535E+01
      9.414  0.4295E+00  0.3579E+01
      9.516  0.4349E+00  0.3623E+01
      9.617  0.4384E+00  0.3667E+01
      9.719  0.4337E+00  0.3711E+01
      9.821  0.4344E+00  0.3756E+01
      9.922  0.4398E+00  0.3800E+01
     10.024  0.4418E+00  0.3845E+01
     10.126  0.4464E+00  0.3890E+01
     10.227  0.4469E+00  0.3935E+01
     10.329  0.4526E+00  0.3981E+01
     10.431  0.4569E+00  0.4027E+01
     10.533  0.4576E+00  0.4074E+01
     10.634  0.4566E+00  0.4120E+01
     10.736  0.4627E+00  0.4167E+01
     10.838  0.4674E+00  0.4214E+01
     10.939  0.4675E+00  0.4262E+01
     11.041  0.4665E+00  0.4310E+01
     11.143  0.4680E+00  0.4357E+01
     11.244  0.4689E+00  0.4405E+01
     11.346  0.4745E+00  0.4453E+01
     11.448  0.4776E+00  0.4501E+01
     11.550  0.4802E+00  0.4550E+01
     11.651  0.4844E+00  0.4599E+01
     11.753  0.4858E+00  0.4648E+01
     11.855  0.4875E+00  0.4698E+01
     11.956  0.4900E+00  0.4747E+01
     12.058  0.4929E+00  0.4797E+01
     12.160  0.4958E+00  0.4848E+01
     12.261  0.5030E+00  0.4898E+01
     12.363  0.5044E+00  0.4950E+01
     12.465  0.5099E+00  0.5001E+01
     12.567  0.5113E+00  0.5053E+01
     12.668  0.5109E+00  0.5105E+01
     12.770  0.5136E+00  0.5157E+01
     12.872  0.5165E+00  0.5210E+01
     12.973  0.5198E+00  0.5262E+01
     13.075  0.5278E+00  0.5315E+01
     13.177  0.5424E+00  0.5370E+01
     13.278  0.5500E+00  0.5425E+01
     13.380  0.5652E+00  0.5482E+01
     13.482  0.5792E+00  0.5540E+01
     13.583  0.5991E+00  0.5600E+01
     13.685  0.6152E+00  0.5662E+01
     13.787  0.5910E+00  0.5723E+01
     13.889  0.5850E+00  0.5783E+01
     13.990  0.5793E+00  0.5842E+01
     14.092  0.5776E+00  0.5901E+01
     14.194  0.5660E+00  0.5959E+01
     14.295  0.5578E+00  0.6016E+01
     14.397  0.5548E+00  0.6072E+01
     14.499  0.5516E+00  0.6129E+01
     14.600  0.5454E+00  0.6185E+01
     14.702  0.5406E+00  0.6240E+01
     14.804  0.5365E+00  0.6295E+01
     14.906  0.5362E+00  0.6349E+01
     15.007  0.5322E+00  0.6403E+01
     15.109  0.5262E+00  0.6457E+01
     15.211  0.5240E+00  0.6511E+01
     15.312  0.5254E+00  0.6564E+01
     15.414  0.5308E+00  0.6618E+01
     15.516  0.5313E+00  0.6672E+01
     15.617  0.5300E+00  0.6726E+01
     15.719  0.5287E+00  0.6779E+01
     15.821  0.5271E+00  0.6833E+01
     15.923  0.5255E+00  0.6887E+01
     16.024  0.5261E+00  0.6940E+01
     16.126  0.5293E+00  0.6994E+01
     16.228  0.5312E+00  0.7048E+01
     16.329  0.5316E+00  0.7102E+01
     16.431  0.5310E+00  0.7156E+01
     16.533  0.5302E+00  0.7210E+01
     16.634  0.5281E+00  0.7264E+01
     16.736  0.5257E+00  0.7317E+01
     16.838  0.5257E+00  0.7371E+01
     16.939  0.5255E+00  0.7424E+01
     17.041  0.5268E+00  0.7478E+01
     17.143  0.5282E+00  0.7531E+01
     17.245  0.5268E+00  0.7585E+01
     17.346  0.5253E+00  0.7638E+01
     17.448  0.5240E+00  0.7692E+01
     17.550  0.5231E+00  0.7745E+01
     17.651  0.5238E+00  0.7798E+01
     17.753  0.5211E+00  0.7851E+01
     17.855  0.5185E+00  0.7904E+01
     17.956  0.5173E+00  0.7957E+01
     18.058  0.5163E+00  0.8009E+01
     18.160  0.5141E+00  0.8062E+01
     18.262  0.5121E+00  0.8114E+01
     18.363  0.5104E+00  0.8166E+01
     18.465  0.5095E+00  0.8218E+01
     18.567  0.5102E+00  0.8270E+01
     18.668  0.5102E+00  0.8322E+01
     18.770  0.5109E+00  0.8373E+01
     18.872  0.5158E+00  0.8426E+01
     18.973  0.5313E+00  0.8479E+01
     19.075  0.5547E+00  0.8534E+01
     19.177  0.5638E+00  0.8591E+01
     19.279  0.5698E+00  0.8649E+01
     19.380  0.5710E+00  0.8707E+01
     19.482  0.5733E+00  0.8765E+01
     19.584  0.5783E+00  0.8823E+01
     19.685  0.5874E+00  0.8883E+01
     19.787  0.5989E+00  0.8943E+01
     19.889  0.5990E+00  0.9004E+01
     19.990  0.6077E+00  0.9065E+01
     20.092  0.5866E+00  0.9126E+01
     20.194  0.5570E+00  0.9185E+01
     20.295  0.5488E+00  0.9240E+01
     20.397  0.5536E+00  0.9297E+01
     20.499  0.5360E+00  0.9352E+01
     20.601  0.5048E+00  0.9405E+01
     20.702  0.4716E+00  0.9457E+01
     20.804  0.4252E+00  0.9501E+01
     20.906  0.4224E+00  0.9544E+01
     21.007  0.4099E+00  0.9586E+01
     21.109  0.3858E+00  0.9627E+01
     21.211  0.3489E+00  0.9664E+01
     21.312  0.3241E+00  0.9698E+01
     21.414  0.3170E+00  0.9731E+01
     21.516  0.3168E+00  0.9763E+01
     21.618  0.3035E+00  0.9795E+01
     21.719  0.2753E+00  0.9824E+01
     21.821  0.2401E+00  0.9850E+01
     21.923  0.1967E+00  0.9872E+01
     22.024  0.1719E+00  0.9891E+01
     22.126  0.1648E+00  0.9908E+01
     22.228  0.1567E+00  0.9925E+01
     22.329  0.1417E+00  0.9940E+01
     22.431  0.1148E+00  0.9953E+01
     22.533  0.9730E-01  0.9964E+01
     22.635  0.9568E-01  0.9974E+01
     22.736  0.8610E-01  0.9983E+01
     22.838  0.6614E-01  0.9991E+01
     22.940  0.3978E-01  0.9996E+01
     23.041  0.8296E-02  0.9998E+01
     23.143  0.5626E-02  0.9999E+01
     23.245  0.3453E-02  0.1000E+02
     23.346  0.1758E-02  0.1000E+02
     23.448  0.1259E-02  0.1000E+02
     23.550  0.0000E+00  0.1000E+02
     23.652  0.0000E+00  0.1000E+02
     23.753  0.0000E+00  0.1000E+02
     23.855  0.0000E+00  0.1000E+02
     23.957  0.0000E+00  0.1000E+02
     24.058  0.0000E+00  0.1000E+02
     24.160  0.0000E+00  0.1000E+02
     24.262  0.0000E+00  0.1000E+02
     24.363  0.0000E+00  0.1000E+02
     24.465  0.0000E+00  0.1000E+02
     24.567  0.0000E+00  0.1000E+02
     24.668  0.0000E+00  0.1000E+02
     24.770  0.0000E+00  0.1000E+02
     24.872  0.0000E+00  0.1000E+02
     24.974  0.0000E+00  0.1000E+02
     25.075  0.0000E+00  0.1000E+02
     25.177  0.0000E+00  0.1000E+02
     25.279  0.0000E+00  0.1000E+02
     25.380  0.0000E+00  0.1000E+02
     25.38035071     -5.12877724  301      8.04548479      1.00000000
     -5.129  0.0000E+00  0.0000E+00  0.0000E+00  0.0000E+00  0.0000E+00  0.0000E+00  0.0000E+00  0.0000E+00  0.0000E+00
     -5.027  0.0000E+00  0.0000E+00  0.0000E+00  0.0000E+00  0.0000E+00  0.0000E+00  0.0000E+00  0.0000E+00  0.0000E+00
     -4.925  0.0000E+00  0.0000E+00  0.0000E+00  0.0000E+00  0.0000E+00  0.0000E+00  0.0000E+00  0.0000E+00  0.0000E+00
     -4.824  0.0000E+00  0.0000E+00  0.0000E+00  0.0000E+00  0.0000E+00  0.0000E+00  0.0000E+00  0.0000E+00  0.0000E+00
     -4.722  0.0000E+00  0.0000E+00  0.0000E+00  0.0000E+00  0.0000E+00  0.0000E+00  0.0000E+00  0.0000E+00  0.0000E+00
     -4.620  0.0000E+00  0.0000E+00  0.0000E+00  0.0000E+00  0.0000E+00  0.0000E+00  0.0000E+00  0.0000E+00  0.0000E+00
     -4.519  0.0000E+00  0.0000E+00  0.0000E+00  0.0000E+00  0.0000E+00  0.0000E+00  0.0000E+00  0.0000E+00  0.0000E+00
     -4.417  0.0000E+00  0.0000E+00  0.0000E+00  0.0000E+00  0.0000E+00  0.0000E+00  0.0000E+00  0.0000E+00  0.0000E+00
     -4.315  0.0000E+00  0.0000E+00  0.0000E+00  0.0000E+00  0.0000E+00  0.0000E+00  0.0000E+00  0.0000E+00  0.0000E+00
     -4.214  0.0000E+00  0.0000E+00  0.0000E+00  0.0000E+00  0.0000E+00  0.0000E+00  0.0000E+00  0.0000E+00  0.0000E+00
     -4.112  0.0000E+00  0.0000E+00  0.0000E+00  0.0000E+00  0.0000E+00  0.0000E+00  0.0000E+00  0.0000E+00  0.0000E+00
     -4.010  0.0000E+00  0.0000E+00  0.0000E+00  0.0000E+00  0.0000E+00  0.0000E+00  0.0000E+00  0.0000E+00  0.0000E+00
     -3.908  0.0000E+00  0.0000E+00  0.0000E+00  0.0000E+00  0.0000E+00  0.0000E+00  0.0000E+00  0.0000E+00  0.0000E+00
     -3.807  0.0000E+00  0.0000E+00  0.0000E+00  0.0000E+00  0.0000E+00  0.0000E+00  0.0000E+00  0.0000E+00  0.0000E+00
     -3.705  0.0000E+00  0.0000E+00  0.0000E+00  0.0000E+00  0.0000E+00  0.0000E+00  0.0000E+00  0.0000E+00  0.0000E+00
     -3.603  0.0000E+00  0.0000E+00  0.0000E+00  0.0000E+00  0.0000E+00  0.0000E+00  0.0000E+00  0.0000E+00  0.0000E+00
     -3.502  0.0000E+00  0.0000E+00  0.0000E+00  0.0000E+00  0.0000E+00  0.0000E+00  0.0000E+00  0.0000E+00  0.0000E+00
     -3.400  0.0000E+00  0.0000E+00  0.0000E+00  0.0000E+00  0.0000E+00  0.0000E+00  0.0000E+00  0.0000E+00  0.0000E+00
     -3.298  0.0000E+00  0.0000E+00  0.0000E+00  0.0000E+00  0.0000E+00  0.0000E+00  0.0000E+00  0.0000E+00  0.0000E+00
     -3.197  0.0000E+00  0.0000E+00  0.0000E+00  0.0000E+00  0.0000E+00  0.0000E+00  0.0000E+00  0.0000E+00  0.0000E+00
     -3.095  0.4336E-02  0.3970E-05  0.3970E-05  0.3970E-05  0.0000E+00  0.0000E+00  0.0000E+00  0.0000E+00  0.0000E+00
     -2.993  0.1254E-01  0.4012E-04  0.4012E-04  0.4012E-04  0.0000E+00  0.0000E+00  0.0000E+00  0.0000E+00  0.0000E+00
     -2.891  0.1445E-01  0.8961E-04  0.8961E-04  0.8961E-04  0.0000E+00  0.0000E+00  0.0000E+00  0.0000E+00  0.0000E+00
     -2.790  0.1720E-01  0.1551E-03  0.1551E-03  0.1551E-03  0.0000E+00  0.0000E+00  0.0000E+00  0.0000E+00  0.0000E+00
     -2.688  0.1979E-01  0.2265E-03  0.2265E-03  0.2265E-03  0.0000E+00  0.0000E+00  0.0000E+00  0.0000E+00  0.0000E+00
     -2.586  0.2170E-01  0.3121E-03  0.3121E-03  0.3121E-03  0.0000E+00  0.0000E+00  0.0000E+00  0.0000E+00  0.0000E+00
     -2.485  0.2351E-01  0.4028E-03  0.4028E-03  0.4028E-03  0.0000E+00  0.0000E+00  0.0000E+00  0.0000E+00  0.0000E+00
     -2.383  0.2548E-01  0.4967E-03  0.4967E-03  0.4967E-03  0.0000E+00  0.0000E+00  0.0000E+00  0.0000E+00  0.0000E+00
     -2.281  0.2666E-01  0.6075E-03  0.6075E-03  0.6075E-03  0.0000E+00  0.0000E+00  0.0000E+00  0.0000E+00  0.0000E+00
     -2.180  0.2812E-01  0.7167E-03  0.7167E-03  0.7167E-03  0.0000E+00  0.0000E+00  0.0000E+00  0.0000E+00  0.0000E+00
     -2.078  0.2967E-01  0.8279E-03  0.8279E-03  0.8279E-03  0.0000E+00  0.0000E+00  0.0000E+00  0.0000E+00  0.0000E+00
     -1.976  0.3063E-01  0.9565E-03  0.9565E-03  0.9565E-03  0.0000E+00  0.0000E+00  0.0000E+00  0.0000E+00  0.0000E+00
     -1.874  0.3166E-01  0.1086E-02  0.1086E-02  0.1086E-02  0.0000E+00  0.0000E+00  0.0000E+00  0.0000E+00  0.0000E+00
     -1.773  0.3284E-01  0.1214E-02  0.1214E-02  0.1214E-02  0.0000E+00  0.0000E+00  0.0000E+00  0.0000E+00  0.0000E+00
     -1.671  0.3389E-01  0.1350E-02  0.1350E-02  0.1350E-02  0.0000E+00  0.0000E+00  0.0000E+00  0.0000E+00  0.0000E+00
     -1.569  0.3463E-01  0.1497E-02  0.1497E-02  0.1497E-02  0.0000E+00  0.0000E+00  0.0000E+00  0.0000E+00  0.0000E+00
     -1.468  0.3545E-01  0.1645E-02  0.1645E-02  0.1645E-02  0.0000E+00  0.0000E+00  0.0000E+00  0.0000E+00  0.0000E+00
     -1.366  0.3636E-01  0.1791E-02  0.1791E-02  0.1791E-02  0.0000E+00  0.0000E+00  0.0000E+00  0.0000E+00  0.0000E+00
     -1.264  0.3729E-01  0.1940E-02  0.1940E-02  0.1940E-02  0.0000E+00  0.0000E+00  0.0000E+00  0.0000E+00  0.0000E+00
     -1.163  0.3783E-01  0.2106E-02  0.2106E-02  0.2106E-02  0.0000E+00  0.0000E+00  0.0000E+00  0.0000E+00  0.0000E+00
     -1.061  0.3843E-01  0.2271E-02  0.2271E-02  0.2271E-02  0.0000E+00  0.0000E+00  0.0000E+00  0.0000E+00  0.0000E+00
     -0.959  0.3909E-01  0.2436E-02  0.2436E-02  0.2436E-02  0.0000E+00  0.0000E+00  0.0000E+00  0.0000E+00  0.0000E+00
     -0.857  0.3979E-01  0.2601E-02  0.2601E-02  0.2601E-02  0.0000E+00  0.0000E+00  0.0000E+00  0.0000E+00  0.0000E+00
     -0.756  0.4043E-01  0.2771E-02  0.2771E-02  0.2771E-02  0.0000E+00  0.0000E+00  0.0000E+00  0.0000E+00  0.0000E+00
     -0.654  0.4082E-01  0.2955E-02  0.2955E-02  0.2955E-02  0.0000E+00  0.0000E+00  0.0000E+00  0.0000E+00  0.0000E+00
     -0.552  0.4127E-01  0.3138E-02  0.3138E-02  0.3138E-02  0.0000E+00  0.0000E+00  0.0000E+00  0.0000E+00  0.0000E+00
     -0.451  0.4177E-01  0.3319E-02  0.3319E-02  0.3319E-02  0.0000E+00  0.0000E+00  0.0000E+00  0.0000E+00  0.0000E+00
     -0.349  0.4228E-01  0.3502E-02  0.3502E-02  0.3502E-02  0.0000E+00  0.0000E+00  0.0000E+00  0.0000E+00  0.0000E+00
     -0.247  0.4282E-01  0.3685E-02  0.3685E-02  0.3685E-02  0.0000E+00  0.0000E+00  0.0000E+00  0.0000E+00  0.0000E+00
     -0.146  0.4310E-01  0.3884E-02  0.3884E-02  0.3884E-02  0.0000E+00  0.0000E+00  0.0000E+00  0.0000E+00  0.0000E+00
     -0.044  0.4338E-01  0.4084E-02  0.4084E-02  0.4084E-02  0.0000E+00  0.0000E+00  0.0000E+00  0.0000E+00  0.0000E+00
      0.058  0.4370E-01  0.4283E-02  0.4283E-02  0.4283E-02  0.0000E+00  0.0000E+00  0.0000E+00  0.0000E+00  0.0000E+00
      0.159  0.4404E-01  0.4483E-02  0.4483E-02  0.4483E-02  0.0000E+00  0.0000E+00  0.0000E+00  0.0000E+00  0.0000E+00
      0.261  0.4441E-01  0.4682E-02  0.4682E-02  0.4682E-02  0.0000E+00  0.0000E+00  0.0000E+00  0.0000E+00  0.0000E+00
      0.363  0.4476E-01  0.4885E-02  0.4885E-02  0.4885E-02  0.0000E+00  0.0000E+00  0.0000E+00  0.0000E+00  0.0000E+00
      0.465  0.4490E-01  0.5103E-02  0.5103E-02  0.5103E-02  0.0000E+00  0.0000E+00  0.0000E+00  0.0000E+00  0.0000E+00
      0.566  0.4506E-01  0.5320E-02  0.5320E-02  0.5320E-02  0.0000E+00  0.0000E+00  0.0000E+00  0.0000E+00  0.0000E+00
      0.668  0.4524E-01  0.5537E-02  0.5537E-02  0.5537E-02  0.0000E+00  0.0000E+00  0.0000E+00  0.0000E+00  0.0000E+00
      0.770  0.4544E-01  0.5755E-02  0.5755E-02  0.5755E-02  0.0000E+00  0.0000E+00  0.0000E+00  0.0000E+00  0.0000E+00
      0.871  0.4566E-01  0.5973E-02  0.5973E-02  0.5973E-02  0.0000E+00  0.0000E+00  0.0000E+00  0.0000E+00  0.0000E+00
      0.973  0.4590E-01  0.6190E-02  0.6190E-02  0.6190E-02  0.0000E+00  0.0000E+00  0.0000E+00  0.0000E+00  0.0000E+00
      1.075  0.4597E-01  0.6422E-02  0.6422E-02  0.6422E-02  0.0000E+00  0.0000E+00  0.0000E+00  0.0000E+00  0.0000E+00
      1.176  0.4598E-01  0.6659E-02  0.6659E-02  0.6659E-02  0.0000E+00  0.0000E+00  0.0000E+00  0.0000E+00  0.0000E+00
      1.278  0.4603E-01  0.6895E-02  0.6895E-02  0.6895E-02  0.0000E+00  0.0000E+00  0.0000E+00  0.0000E+00  0.0000E+00
      1.380  0.4608E-01  0.7133E-02  0.7133E-02  0.7133E-02  0.0000E+00  0.0000E+00  0.0000E+00  0.0000E+00  0.0000E+00
      1.482  0.4615E-01  0.7371E-02  0.7371E-02  0.7371E-02  0.0000E+00  0.0000E+00  0.0000E+00  0.0000E+00  0.0000E+00
      1.583  0.4622E-01  0.7610E-02  0.7610E-02  0.7610E-02  0.0000E+00  0.0000E+00  0.0000E+00  0.0000E+00  0.0000E+00
      1.685  0.4631E-01  0.7851E-02  0.7851E-02  0.7851E-02  0.0000E+00  0.0000E+00  0.0000E+00  0.0000E+00  0.0000E+00
      1.787  0.4623E-01  0.8106E-02  0.8106E-02  0.8106E-02  0.0000E+00  0.0000E+00  0.0000E+00  0.0000E+00  0.0000E+00
      1.888  0.4612E-01  0.8366E-02  0.8366E-02  0.8366E-02  0.0000E+00  0.0000E+00  0.0000E+00  0.0000E+00  0.0000E+00
      1.990  0.4601E-01  0.8629E-02  0.8629E-02  0.8629E-02  0.0000E+00  0.0000E+00  0.0000E+00  0.0000E+00  0.0000E+00
      2.092  0.4591E-01  0.8893E-02  0.8893E-02  0.8893E-02  0.0000E+00  0.0000E+00  0.0000E+00  0.0000E+00  0.0000E+00
      2.193  0.4581E-01  0.9160E-02  0.9160E-02  0.9160E-02  0.0000E+00  0.0000E+00  0.0000E+00  0.0000E+00  0.0000E+00
      2.295  0.4572E-01  0.9431E-02  0.9431E-02  0.9431E-02  0.0000E+00  0.0000E+00  0.0000E+00  0.0000E+00  0.0000E+00
      2.397  0.4561E-01  0.9706E-02  0.9706E-02  0.9706E-02  0.0000E+00  0.0000E+00  0.0000E+00  0.0000E+00  0.0000E+00
      2.499  0.4542E-01  0.9994E-02  0.9994E-02  0.9994E-02  0.0000E+00  0.0000E+00  0.0000E+00  0.0000E+00  0.0000E+00
      2.600  0.4509E-01  0.1030E-01  0.1030E-01  0.1030E-01  0.0000E+00  0.0000E+00  0.0000E+00  0.0000E+00  0.0000E+00
      2.702  0.4473E-01  0.1063E-01  0.1063E-01  0.1063E-01  0.0000E+00  0.0000E+00  0.0000E+00  0.0000E+00  0.0000E+00
      2.804  0.4435E-01  0.1097E-01  0.1097E-01  0.1097E-01  0.0000E+00  0.0000E+00  0.0000E+00  0.0000E+00  0.0000E+00
      2.905  0.4399E-01  0.1136E-01  0.1136E-01  0.1136E-01  0.0000E+00  0.0000E+00  0.0000E+00  0.0000E+00  0.0000E+00
      3.007  0.4372E-01  0.1182E-01  0.1182E-01  0.1182E-01  0.0000E+00  0.0000E+00  0.0000E+00  0.0000E+00  0.0000E+00
      3.109  0.4372E-01  0.1244E-01  0.1244E-01  0.1244E-01  0.0000E+00  0.0000E+00  0.0000E+00  0.0000E+00  0.0000E+00
      3.210  0.4443E-01  0.1343E-01  0.1343E-01  0.1343E-01  0.0000E+00  0.0000E+00  0.0000E+00  0.0000E+00  0.0000E+00
      3.312  0.4318E-01  0.1357E-01  0.1357E-01  0.1357E-01  0.0000E+00  0.0000E+00  0.0000E+00  0.0000E+00  0.0000E+00
      3.414  0.4209E-01  0.1388E-01  0.1388E-01  0.1388E-01  0.0000E+00  0.0000E+00  0.0000E+00  0.0000E+00  0.0000E+00
      3.515  0.4072E-01  0.1404E-01  0.1404E-01  0.1404E-01  0.0000E+00  0.0000E+00  0.0000E+00  0.0000E+00  0.0000E+00
      3.617  0.3766E-01  0.1325E-01  0.1325E-01  0.1325E-01  0.0000E+00  0.0000E+00  0.0000E+00  0.0000E+00  0.0000E+00
      3.719  0.3591E-01  0.1312E-01  0.1312E-01  0.1312E-01  0.0000E+00  0.0000E+00  0.0000E+00  0.0000E+00  0.0000E+00
      3.821  0.3746E-01  0.1437E-01  0.1437E-01  0.1437E-01  0.0000E+00  0.0000E+00  0.0000E+00  0.0000E+00  0.0000E+00
      3.922  0.3688E-01  0.1365E-01  0.1365E-01  0.1365E-01  0.0000E+00  0.0000E+00  0.0000E+00  0.0000E+00  0.0000E+00
      4.024  0.4046E-01  0.1448E-01  0.1448E-01  0.1448E-01  0.0000E+00  0.0000E+00  0.0000E+00  0.0000E+00  0.0000E+00
      4.126  0.4080E-01  0.1430E-01  0.1430E-01  0.1430E-01  0.0000E+00  0.0000E+00  0.0000E+00  0.0000E+00  0.0000E+00
      4.227  0.3920E-01  0.1428E-01  0.1428E-01  0.1428E-01  0.0000E+00  0.0000E+00  0.0000E+00  0.0000E+00  0.0000E+00
      4.329  0.4333E-01  0.1558E-01  0.1558E-01  0.1558E-01  0.0000E+00  0.0000E+00  0.0000E+00  0.0000E+00  0.0000E+00
      4.431  0.4218E-01  0.1629E-01  0.1629E-01  0.1629E-01  0.0000E+00  0.0000E+00  0.0000E+00  0.0000E+00  0.0000E+00
      4.532  0.4054E-01  0.1565E-01  0.1565E-01  0.1565E-01  0.0000E+00  0.0000E+00  0.0000E+00  0.0000E+00  0.0000E+00
      4.634  0.3942E-01  0.1579E-01  0.1579E-01  0.1579E-01  0.0000E+00  0.0000E+00  0.0000E+00  0.0000E+00  0.0000E+00
      4.736  0.4074E-01  0.1668E-01  0.1668E-01  0.1668E-01  0.0000E+00  0.0000E+00  0.0000E+00  0.0000E+00  0.0000E+00
      4.838  0.4692E-01  0.1812E-01  0.1812E-01  0.1812E-01  0.0000E+00  0.0000E+00  0.0000E+00  0.0000E+00  0.0000E+00
      4.939  0.3984E-01  0.1821E-01  0.1821E-01  0.1821E-01  0.0000E+00  0.0000E+00  0.0000E+00  0.0000E+00  0.0000E+00
      5.041  0.4058E-01  0.1963E-01  0.1963E-01  0.1963E-01  0.0000E+00  0.0000E+00  0.0000E+00  0.0000E+00  0.0000E+00
      5.143  0.3955E-01  0.1991E-01  0.1991E-01  0.1991E-01  0.0000E+00  0.0000E+00  0.0000E+00  0.0000E+00  0.0000E+00
      5.244  0.3835E-01  0.1933E-01  0.1933E-01  0.1933E-01  0.0000E+00  0.0000E+00  0.0000E+00  0.0000E+00  0.0000E+00
      5.346  0.3829E-01  0.1920E-01  0.1920E-01  0.1920E-01  0.0000E+00  0.0000E+00  0.0000E+00  0.0000E+00  0.0000E+00
      5.448  0.3794E-01  0.1885E-01  0.1885E-01  0.1885E-01  0.0000E+00  0.0000E+00  0.0000E+00  0.0000E+00  0.0000E+00
      5.549  0.3732E-01  0.1898E-01  0.1898E-01  0.1898E-01  0.0000E+00  0.0000E+00  0.0000E+00  0.0000E+00  0.0000E+00
      5.651  0.3537E-01  0.1808E-01  0.1808E-01  0.1808E-01  0.0000E+00  0.0000E+00  0.0000E+00  0.0000E+00  0.0000E+00
      5.753  0.3504E-01  0.1885E-01  0.1885E-01  0.1885E-01  0.0000E+00  0.0000E+00  0.0000E+00  0.0000E+00  0.0000E+00
      5.855  0.3504E-01  0.1832E-01  0.1832E-01  0.1832E-01  0.0000E+00  0.0000E+00  0.0000E+00  0.0000E+00  0.0000E+00
      5.956  0.3436E-01  0.1888E-01  0.1888E-01  0.1888E-01  0.0000E+00  0.0000E+00  0.0000E+00  0.0000E+00  0.0000E+00
      6.058  0.3274E-01  0.1575E-01  0.1575E-01  0.1575E-01  0.0000E+00  0.0000E+00  0.0000E+00  0.0000E+00  0.0000E+00
      6.160  0.3437E-01  0.1804E-01  0.1804E-01  0.1804E-01  0.0000E+00  0.0000E+00  0.0000E+00  0.0000E+00  0.0000E+00
      6.261  0.3289E-01  0.1777E-01  0.1777E-01  0.1777E-01  0.0000E+00  0.0000E+00  0.0000E+00  0.0000E+00  0.0000E+00
      6.363  0.3247E-01  0.1735E-01  0.1735E-01  0.1735E-01  0.0000E+00  0.0000E+00  0.0000E+00  0.0000E+00  0.0000E+00
      6.465  0.3089E-01  0.1750E-01  0.1750E-01  0.1750E-01  0.0000E+00  0.0000E+00  0.0000E+00  0.0000E+00  0.0000E+00
      6.566  0.3232E-01  0.1798E-01  0.1798E-01  0.1798E-01  0.0000E+00  0.0000E+00  0.0000E+00  0.0000E+00  0.0000E+00
      6.668  0.3578E-01  0.1873E-01  0.1873E-01  0.1873E-01  0.0000E+00  0.0000E+00  0.0000E+00  0.0000E+00  0.0000E+00
      6.770  0.3627E-01  0.1838E-01  0.1838E-01  0.1838E-01  0.0000E+00  0.0000E+00  0.0000E+00  0.0000E+00  0.0000E+00
      6.871  0.3784E-01  0.1839E-01  0.1839E-01  0.1839E-01  0.0000E+00  0.0000E+00  0.0000E+00  0.0000E+00  0.0000E+00
      6.973  0.3812E-01  0.1948E-01  0.1948E-01  0.1948E-01  0.0000E+00  0.0000E+00  0.0000E+00  0.0000E+00  0.0000E+00
      7.075  0.3901E-01  0.1979E-01  0.1979E-01  0.1979E-01  0.0000E+00  0.0000E+00  0.0000E+00  0.0000E+00  0.0000E+00
      7.177  0.4047E-01  0.1996E-01  0.1996E-01  0.1996E-01  0.0000E+00  0.0000E+00  0.0000E+00  0.0000E+00  0.0000E+00
      7.278  0.3651E-01  0.1971E-01  0.1971E-01  0.1971E-01  0.0000E+00  0.0000E+00  0.0000E+00  0.0000E+00  0.0000E+00
      7.380  0.3418E-01  0.2018E-01  0.2018E-01  0.2018E-01  0.0000E+00  0.0000E+00  0.0000E+00  0.0000E+00  0.0000E+00
      7.482  0.3287E-01  0.1901E-01  0.1901E-01  0.1901E-01  0.0000E+00  0.0000E+00  0.0000E+00  0.0000E+00  0.0000E+00
      7.583  0.3069E-01  0.1850E-01  0.1850E-01  0.1850E-01  0.0000E+00  0.0000E+00  0.0000E+00  0.0000E+00  0.0000E+00
      7.685  0.2924E-01  0.1765E-01  0.1765E-01  0.1765E-01  0.0000E+00  0.0000E+00  0.0000E+00  0.0000E+00  0.0000E+00
      7.787  0.3221E-01  0.1752E-01  0.1752E-01  0.1752E-01  0.0000E+00  0.0000E+00  0.0000E+00  0.0000E+00  0.0000E+00
      7.888  0.3707E-01  0.1776E-01  0.1776E-01  0.1776E-01  0.0000E+00  0.0000E+00  0.0000E+00  0.0000E+00  0.0000E+00
      7.990  0.3886E-01  0.1770E-01  0.1770E-01  0.1770E-01  0.0000E+00  0.0000E+00  0.0000E+00  0.0000E+00  0.0000E+00
      8.092  0.4418E-01  0.1970E-01  0.1970E-01  0.1970E-01  0.0000E+00  0.0000E+00  0.0000E+00  0.0000E+00  0.0000E+00
      8.194  0.4924E-01  0.2037E-01  0.2037E-01  0.2037E-01  0.0000E+00  0.0000E+00  0.0000E+00  0.0000E+00  0.0000E+00
      8.295  0.4391E-01  0.1974E-01  0.1974E-01  0.1974E-01  0.0000E+00  0.0000E+00  0.0000E+00  0.0000E+00  0.0000E+00
      8.397  0.4339E-01  0.1973E-01  0.1973E-01  0.1973E-01  0.0000E+00  0.0000E+00  0.0000E+00  0.0000E+00  0.0000E+00
      8.499  0.4206E-01  0.1951E-01  0.1951E-01  0.1951E-01  0.0000E+00  0.0000E+00  0.0000E+00  0.0000E+00  0.0000E+00
      8.600  0.4220E-01  0.1980E-01  0.1980E-01  0.1980E-01  0.0000E+00  0.0000E+00  0.0000E+00  0.0000E+00  0.0000E+00
      8.702  0.4209E-01  0.2008E-01  0.2008E-01  0.2008E-01  0.0000E+00  0.0000E+00  0.0000E+00  0.0000E+00  0.0000E+00
      8.804  0.4059E-01  0.1958E-01  0.1958E-01  0.1958E-01  0.0000E+00  0.0000E+00  0.0000E+00  0.0000E+00  0.0000E+00
      8.905  0.4035E-01  0.1964E-01  0.1964E-01  0.1964E-01  0.0000E+00  0.0000E+00  0.0000E+00  0.0000E+00  0.0000E+00
      9.007  0.4070E-01  0.2002E-01  0.2002E-01  0.2002E-01  0.0000E+00  0.0000E+00  0.0000E+00  0.0000E+00  0.0000E+00
      9.109  0.3993E-01  0.2032E-01  0.2032E-01  0.2032E-01  0.0000E+00  0.0000E+00  0.0000E+00  0.0000E+00  0.0000E+00
      9.211  0.3914E-01  0.2044E-01  0.2044E-01  0.2044E-01  0.0000E+00  0.0000E+00  0.0000E+00  0.0000E+00  0.0000E+00
      9.312  0.4088E-01  0.2058E-01  0.2058E-01  0.2058E-01  0.0000E+00  0.0000E+00  0.0000E+00  0.0000E+00  0.0000E+00
      9.414  0.4074E-01  0.2068E-01  0.2068E-01  0.2068E-01  0.0000E+00  0.0000E+00  0.0000E+00  0.0000E+00  0.0000E+00
      9.516  0.4231E-01  0.2084E-01  0.2084E-01  0.2084E-01  0.0000E+00  0.0000E+00  0.0000E+00  0.0000E+00  0.0000E+00
      9.617  0.4444E-01  0.2083E-01  0.2083E-01  0.2083E-01  0.0000E+00  0.0000E+00  0.0000E+00  0.0000E+00  0.0000E+00
      9.719  0.4453E-01  0.2058E-01  0.2058E-01  0.2058E-01  0.0000E+00  0.0000E+00  0.0000E+00  0.0000E+00  0.0000E+00
      9.821  0.4424E-01  0.2075E-01  0.2075E-01  0.2075E-01  0.0000E+00  0.0000E+00  0.0000E+00  0.0000E+00  0.0000E+00
      9.922  0.4450E-01  0.2112E-01  0.2112E-01  0.2112E-01  0.0000E+00  0.0000E+00  0.0000E+00  0.0000E+00  0.0000E+00
     10.024  0.4454E-01  0.2130E-01  0.2130E-01  0.2130E-01  0.0000E+00  0.0000E+00  0.0000E+00  0.0000E+00  0.0000E+00
     10.126  0.4509E-01  0.2159E-01  0.2159E-01  0.2159E-01  0.0000E+00  0.0000E+00  0.0000E+00  0.0000E+00  0.0000E+00
     10.227  0.4536E-01  0.2166E-01  0.2166E-01  0.2166E-01  0.0000E+00  0.0000E+00  0.0000E+00  0.0000E+00  0.0000E+00
     10.329  0.4620E-01  0.2198E-01  0.2198E-01  0.2198E-01  0.0000E+00  0.0000E+00  0.0000E+00  0.0000E+00  0.0000E+00
     10.431  0.4682E-01  0.2228E-01  0.2228E-01  0.2228E-01  0.0000E+00  0.0000E+00  0.0000E+00  0.0000E+00  0.0000E+00
     10.533  0.4642E-01  0.2247E-01  0.2247E-01  0.2247E-01  0.0000E+00  0.0000E+00  0.0000E+00  0.0000E+00  0.0000E+00
     10.634  0.4565E-01  0.2258E-01  0.2258E-01  0.2258E-01  0.0000E+00  0.0000E+00  0.0000E+00  0.0000E+00  0.0000E+00
     10.736  0.4618E-01  0.2304E-01  0.2304E-01  0.2304E-01  0.0000E+00  0.0000E+00  0.0000E+00  0.0000E+00  0.0000E+00