    1    1    1    1
  0.1647570E+02  0.2856185E-09  0.2856185E-09  0.2856185E-09  0.5000000E-15
   1.0000000000000000E-004
  CAR 
 Al                                      
      3    455      6

  0.1262379E-14  0.1262379E-14  0.1262379E-14  0.6400000E-04
      1         -3.128911   1.000000
      2         20.645398   0.000000
      3         20.645399   0.000000
      4         20.645403   0.000000
      5         22.145752   0.000000
      6         24.491415   0.000000

  0.4000000E-01  0.1262879E-14  0.1257436E-14  0.5120000E-03
      1         -3.085373   1.000000
      2         19.706618   0.000000
      3         20.466010   0.000000
      4         20.466018   0.000000
      5         22.394944   0.000000
      6         22.602280   0.000000

  0.8000000E-01  0.1262879E-14  0.1254534E-14  0.5120000E-03
      1         -2.954800   1.000000
      2         18.162735   0.000000
      3         20.108812   0.000000
      4         20.108821   0.000000
      5         22.803672   0.000000
      6         22.968448   0.000000

  0.1200000E+00  0.1276756E-14  0.1262041E-14  0.5120000E-03
      1         -2.737464   1.000000
      2         16.541716   0.000000
      3         19.744782   0.000000
      4         19.744795   0.000000
      5         22.761300   0.000000
      6         23.638060   0.000000

  0.1600000E+00  0.1262879E-14  0.1249883E-14  0.5120000E-03
      1         -2.433738   1.000000
      2         14.929339   0.000000
      3         19.425017   0.000000
      4         19.425032   0.000000
      5         22.640437   0.000000
      6         24.148385   0.000000

  0.2000000E+00  0.1262879E-14  0.1232081E-14  0.5120000E-03
      1         -2.044214   1.000000
      2         13.354074   0.000000
      3         19.165330   0.000000
      4         19.165347   0.000000
      5         22.510131   0.000000
      6         23.720654   0.000000

  0.2400000E+00  0.1276756E-14  0.1269647E-14  0.5120000E-03
      1         -1.569560   1.000000
      2         11.830162   0.000000
      3         18.972553   0.000000
      4         18.972572   0.000000
      5         22.405384   0.000000
      6         23.094401   0.000000

  0.2800000E+00  0.1276756E-14  0.1230913E-14  0.5120000E-03
      1         -1.010628   1.000000
      2         10.365130   0.000000
      3         18.849427   0.000000
      4         18.849447   0.000000
      5         22.271300   0.000000
      6         22.359798   0.000000

  0.3200000E+00  0.1276756E-14  0.1240724E-14  0.5120000E-03
      1         -0.368398   1.000000
      2          8.964047  -0.048900
      3         18.797529   0.000000
      4         18.797549   0.000000
      5         21.599141   0.000000
      6         22.425512   0.000000

  0.3600000E+00  0.1276756E-14  0.1250535E-14  0.5120000E-03
      1          0.356058   1.000000
      2          7.630517   0.885112
      3         18.817741   0.000000
      4         18.817762   0.000000
      5         21.001510   0.000000
      6         21.353939   0.000000

  0.4000000E+00  0.1304512E-14  0.1269615E-14  0.5120000E-03
      1          1.161367   1.000000
      2          6.367284   1.000000
      3         18.910890   0.000000
      4         18.910912   0.000000
      5         20.472844   0.000000
      6         22.555770   0.000000

  0.4400000E+00  0.1276756E-14  0.1233185E-14  0.5120000E-03
      1          2.045841   1.000000
      2          5.177196   1.000000
      3         19.076677   0.000000
      4         19.076699   0.000000
      5         20.015148   0.000000
      6         23.228489   0.000000

  0.4800000E+00  0.1249001E-14  0.1233726E-14  0.5120000E-03
      1          3.002926   1.000000
      2          4.067097   1.000000
      3         19.314687   0.000000
      4         19.314710   0.000000
      5         19.630409   0.000000
      6         19.807332   0.000000

  0.4000000E-01  0.4000000E-01  0.1257428E-14  0.3840000E-03
      1         -3.070858   1.000000
      2         20.002983   0.000000
      3         20.002988   0.000000
      4         20.211272   0.000000
      5         22.002731   0.000000
      6         23.120802   0.000000

  0.8000000E-01  0.4000000E-01  0.1255102E-14  0.1536000E-02
      1         -2.969297   1.000000
      2         18.684052   0.000000
      3         19.536249   0.000000
      4         20.242106   0.000000
      5         22.081336   0.000000
      6         24.496905   0.000000

  0.1200000E+00  0.4000000E-01  0.1270700E-14  0.1536000E-02
      1         -2.780903   1.000000
      2         17.095544   0.000000
      3         19.115239   0.000000
      4         20.079204   0.000000
      5         22.534048   0.000000
      6         23.382991   0.000000

  0.1600000E+00  0.4000000E-01  0.1243513E-14  0.1536000E-02
      1         -2.505986   1.000000
      2         15.485710   0.000000
      3         18.755334   0.000000
      4         19.823566   0.000000
      5         22.995049   0.000000
      6         23.337757   0.000000

  0.2000000E+00  0.4000000E-01  0.1239588E-14  0.1536000E-02
      1         -2.145095   1.000000
      2         13.901600   0.000000
      3         18.462745   0.000000
      4         19.578216   0.000000
      5         22.823163   0.000000
      6         23.306618   0.000000

  0.2400000E+00  0.4000000E-01  0.1260972E-14  0.1536000E-02
      1         -1.698843   1.000000
      2         12.362528   0.000000
      3         18.240185   0.000000
      4         19.380033   0.000000
      5         22.144893   0.000000
      6         23.079675   0.000000

  0.2800000E+00  0.4000000E-01  0.1222238E-14  0.1536000E-02
      1         -1.168056   1.000000
      2         10.879208   0.000000
      3         18.089106   0.000000
      4         19.243132   0.000000
      5         21.406930   0.000000
      6         22.998344   0.000000

  0.3200000E+00  0.4000000E-01  0.1250535E-14  0.1536000E-02
      1         -0.553638   1.000000
      2          9.457689   0.000000
      3         18.010376   0.000000
      4         19.173817   0.000000
      5         20.714457   0.000000
      6         22.855350   0.000000

  0.3600000E+00  0.4000000E-01  0.1225678E-14  0.1536000E-02
      1          0.143340   1.000000
      2          8.102261   0.430747
      3         18.004471   0.000000
      4         19.175134   0.000000
      5         20.084983   0.000000
      6         22.121491   0.000000

  0.4000000E+00  0.4000000E-01  0.1260940E-14  0.1536000E-02
      1          0.921629   1.000000
      2          6.815952   1.001526
      3         18.071674   0.000000
      4         19.248329   0.000000
      5         19.525164   0.000000
      6         21.903501   0.000000

  0.4400000E+00  0.4000000E-01  0.1256874E-14  0.1536000E-02
      1          1.779701   1.000000
      2          5.601738   1.000000
      3         18.212734   0.000000
      4         19.035130   0.000000
      5         19.397388   0.000000
      6         21.071030   0.000000

  0.4800000E+00  0.4000000E-01  0.1197296E-14  0.1536000E-02
      1          2.714168   1.000000
      2          4.463518   1.000000
      3         18.427133   0.000000
      4         18.620311   0.000000
      5         19.617827   0.000000
      6         20.705192   0.000000

 -0.4800000E+00  0.4000000E-01  0.1269003E-14  0.1536000E-02
      1          3.358080   1.000000
      2          3.768617   1.000000
      3         18.279231   0.000000
      4         18.714993   0.000000
      5         19.912317   0.000000
      6         20.301131   0.000000

 -0.4400000E+00  0.4000000E-01  0.1292692E-14  0.1536000E-02
      1          2.394725   1.000000
      2          4.833883   1.000000
      3         18.012531   0.000000
      4         19.076021   0.000000
      5         20.019126   0.000000
      6         20.288647   0.000000

 -0.4000000E+00  0.4000000E-01  0.1284017E-14  0.1536000E-02
      1          1.484941   1.000000
      2          5.998201   1.000000
      3         17.820126   0.000000
      4         19.505402   0.000000
      5         19.834770   0.000000
      6         20.764324   0.000000

 -0.3600000E+00  0.4000000E-01  0.1321584E-14  0.1536000E-02
      1          0.653267   1.000000
      2          7.236707   1.074596
      3         17.702483   0.000000
      4         19.696393   0.000000
      5         20.033779   0.000000
      6         21.354840   0.000000

 -0.3200000E+00  0.4000000E-01  0.1285153E-14  0.1536000E-02
      1         -0.098098   1.000000
      2          8.546198   0.023918
      3         17.659126   0.000000
      4         19.656111   0.000000
      5         20.606958   0.000000
      6         21.811661   0.000000

 -0.2800000E+00  0.4000000E-01  0.1267209E-14  0.1536000E-02
      1         -0.767663   1.000000
      2          9.923816   0.000000
      3         17.689919   0.000000
      4         19.681855   0.000000
      5         21.252776   0.000000
      6         22.505863   0.000000

 -0.2400000E+00  0.4000000E-01  0.1326744E-14  0.1536000E-02
      1         -1.354332   1.000000
      2         11.366049   0.000000
      3         17.794290   0.000000
      4         19.776553   0.000000
      5         21.958978   0.000000
      6         22.765049   0.000000

 -0.2000000E+00  0.4000000E-01  0.1285679E-14  0.1536000E-02
      1         -1.857029   1.000000
      2         12.867886   0.000000
      3         17.971656   0.000000
      4         19.937963   0.000000
      5         22.700255   0.000000
      6         22.873685   0.000000

 -0.1600000E+00  0.4000000E-01  0.1280601E-14  0.1536000E-02
      1         -2.274917   1.000000
      2         14.421616   0.000000
      3         18.221062   0.000000
      4         20.159855   0.000000
      5         22.915924   0.000000
      6         23.523728   0.000000

 -0.1200000E+00  0.4000000E-01  0.1266140E-14  0.1536000E-02
      1         -2.607211   1.000000
      2         16.012493   0.000000
      3         18.541799   0.000000
      4         20.426100   0.000000
      5         23.022721   0.000000
      6         23.713702   0.000000

 -0.8000000E-01  0.4000000E-01  0.1267284E-14  0.1536000E-02
      1         -2.853337   1.000000
      2         17.606522   0.000000
      3         18.937280   0.000000
      4         20.684661   0.000000
      5         22.540573   0.000000
      6         23.073581   0.000000

 -0.4000000E-01  0.4000000E-01  0.1267142E-14  0.7680000E-03
      1         -3.012819   1.000000
      2         19.032767   0.000000
      3         19.497367   0.000000
      4         20.757954   0.000000
      5         22.220027   0.000000
      6         22.904104   0.000000

  0.8000000E-01  0.8000000E-01  0.1255670E-14  0.3840000E-03
      1         -2.896812   1.000000
      2         19.011630   0.000000
      3         19.011637   0.000000
      4         19.299542   0.000000
      5         21.613762   0.000000
      6         24.780363   0.000000

  0.1200000E+00  0.8000000E-01  0.1255086E-14  0.1536000E-02
      1         -2.737454   1.000000
      2         17.655648   0.000000
      3         18.549868   0.000000
      4         19.424119   0.000000
      5         21.593623   0.000000
      6         24.043402   0.000000

  0.1600000E+00  0.8000000E-01  0.1242929E-14  0.1536000E-02
      1         -2.491524   1.000000
      2         16.082366   0.000000
      3         18.156159   0.000000
      4         19.404012   0.000000
      5         21.956812   0.000000
      6         23.170648   0.000000

  0.2000000E+00  0.8000000E-01  0.1230913E-14  0.1536000E-02
      1         -2.159505   1.000000
      2         14.505092   0.000000
      3         17.833158   0.000000
      4         19.247229   0.000000
      5         21.892957   0.000000
      6         22.914380   0.000000

  0.2400000E+00  0.8000000E-01  0.1254601E-14  0.1536000E-02
      1         -1.741958   1.000000
      2         12.959918   0.000000
      3         17.582151   0.000000
      4         19.073211   0.000000
      5         21.099748   0.000000
      6         23.951991   0.000000

  0.2800000E+00  0.8000000E-01  0.1215867E-14  0.1536000E-02
      1         -1.239673   1.000000
      2         11.463724   0.000000
      3         17.403847   0.000000
      4         18.933717   0.000000
      5         20.308100   0.000000
      6         24.531914   0.000000

  0.3200000E+00  0.8000000E-01  0.1258042E-14  0.1536000E-02
      1         -0.653499   1.000000
      2         10.025341   0.000000
      3         17.298607   0.000000
      4         18.848306   0.000000
      5         19.577435   0.000000
      6         23.869373   0.000000

  0.3600000E+00  0.8000000E-01  0.1265549E-14  0.1536000E-02
      1          0.015502   1.000000
      2          8.650507  -0.030235
      3         17.266758   0.000000
      4         18.785383   0.000000
      5         18.959002   0.000000
      6         24.184572   0.000000

  0.4000000E+00  0.8000000E-01  0.1224510E-14  0.1536000E-02
      1          0.766199   1.000000
      2          7.343108   1.060717
      3         17.308528   0.000000
      4         18.294547   0.000000
      5         18.911682   0.000000
      6         22.643212   0.000000

  0.4400000E+00  0.8000000E-01  0.1248199E-14  0.1536000E-02
      1          1.597111   1.000000
      2          6.106314   1.000000
      3         17.424180   0.000000
      4         17.778317   0.000000
      5         19.037257   0.000000
      6         22.120219   0.000000

  0.4800000E+00  0.8000000E-01  0.1216376E-14  0.1536000E-02
      1          2.505870   1.000000
      2          4.943438   1.000000
      3         17.332897   0.000000
      4         17.613668   0.000000
      5         19.241557   0.000000
      6         21.682635   0.000000

 -0.4800000E+00  0.8000000E-01  0.1292692E-14  0.1536000E-02
      1          3.466914   1.000000
      2          3.880638   1.000000
      3         16.961902   0.000000
      4         17.877364   0.000000
      5         19.522135   0.000000
      6         21.356989   0.000000

 -0.4400000E+00  0.8000000E-01  0.1314077E-14  0.1536000E-02
      1          2.825126   1.000000
      2          4.573077   1.000000
      3         16.666733   0.000000
      4         18.214577   0.000000
      5         19.877860   0.000000
      6         21.077034   0.000000

 -0.4000000E+00  0.8000000E-01  0.1291524E-14  0.1536000E-02
      1          1.891687   1.000000
      2          5.709491   1.000000
      3         16.447887   0.000000
      4         18.625210   0.000000
      5         20.307557   0.000000
      6         20.842220   0.000000

 -0.3600000E+00  0.8000000E-01  0.1345272E-14  0.1536000E-02
      1          1.034393   1.000000
      2          6.921544   1.012926
      3         16.305506   0.000000
      4         19.107989   0.000000
      5         20.683297   0.000000
      6         20.831700   0.000000

 -0.3200000E+00  0.8000000E-01  0.1311146E-14  0.1536000E-02
      1          0.256763   1.000000
      2          8.204832   0.327936
      3         16.239921   0.000000
      4         19.658280   0.000000
      5         20.617057   0.000000
      6         21.495802   0.000000

 -0.2800000E+00  0.8000000E-01  0.1268929E-14  0.1536000E-02
      1         -0.439636   1.000000
      2          9.555870   0.000000
      3         16.251433   0.000000
      4         20.249333   0.000000
      5         20.652771   0.000000
      6         22.143405   0.000000

 -0.2400000E+00  0.8000000E-01  0.1304191E-14  0.1536000E-02
      1         -1.053546   1.000000
      2         10.970351   0.000000
      3         16.340731   0.000000
      4         20.605328   0.000000
      5         21.056510   0.000000
      6         22.729272   0.000000

 -0.2000000E+00  0.8000000E-01  0.1261974E-14  0.1536000E-02
      1         -1.583912   1.000000
      2         12.441227   0.000000
      3         16.509306   0.000000
      4         20.763325   0.000000
      5         21.769511   0.000000
      6         23.406114   0.000000

 -0.1600000E+00  0.8000000E-01  0.1291002E-14  0.1536000E-02
      1         -2.029794   1.000000
      2         13.955138   0.000000
      3         16.762874   0.000000
      4         20.945443   0.000000
      5         22.481401   0.000000
      6         23.814942   0.000000

 -0.1200000E+00  0.8000000E-01  0.1266708E-14  0.1536000E-02
      1         -2.390400   1.000000
      2         15.473969   0.000000
      3         17.124887   0.000000
      4         21.119401   0.000000
      5         22.679223   0.000000
      6         23.814044   0.000000

 -0.8000000E-01  0.8000000E-01  0.1271422E-14  0.7680000E-03
      1         -2.665084   1.000000
      2         16.819893   0.000000
      3         17.745036   0.000000
      4         21.097395   0.000000
      5         22.412095   0.000000
      6         23.597373   0.000000

  0.1200000E+00  0.1200000E+00  0.1256806E-14  0.3840000E-03
      1         -2.607198   1.000000
      2         18.053767   0.000000
      3         18.053774   0.000000
      4         18.299712   0.000000
      5         21.065990   0.000000
      6         22.969603   0.000000

  0.1600000E+00  0.1200000E+00  0.1266618E-14  0.1536000E-02
      1         -2.390385   1.000000
      2         16.691533   0.000000
      3         17.629416   0.000000
      4         18.514460   0.000000
      5         20.993692   0.000000
      6         21.931404   0.000000

  0.2000000E+00  0.1200000E+00  0.1224542E-14  0.1536000E-02
      1         -2.087409   1.000000
      2         15.151874   0.000000
      3         17.277802   0.000000
      4         18.583739   0.000000
      5         20.861848   0.000000
      6         21.492547   0.000000

  0.2400000E+00  0.1200000E+00  0.1278290E-14  0.1536000E-02
      1         -1.698823   1.000000
      2         13.615357   0.000000
      3         16.999259   0.000000
      4         18.497738   0.000000
      5         19.990955   0.000000
      6         22.243589   0.000000

  0.2800000E+00  0.1200000E+00  0.1225678E-14  0.1536000E-02
      1         -1.225354   1.000000
      2         12.114387   0.000000
      3         16.794149   0.000000
      4         18.374287   0.000000
      5         19.161215   0.000000
      6         23.071924   0.000000

  0.3200000E+00  0.1200000E+00  0.1265549E-14  0.1536000E-02
      1         -0.667806   1.000000
      2         10.664146   0.000000
      3         16.662736   0.000000
      4         18.208655   0.000000
      5         18.470629   0.000000
      6         24.021601   0.000000

  0.3600000E+00  0.1200000E+00  0.1224510E-14  0.1536000E-02
      1         -0.027212   1.000000
      2          9.273193  -0.003932
      3         16.605103   0.000000
      4         17.638174   0.000000
      5         18.311463   0.000000
      6         24.970235   0.000000

  0.4000000E+00  0.1200000E+00  0.1248199E-14  0.1536000E-02
      1          0.695332   1.000000
      2          7.947000   0.586367
      3         16.621374   0.000000
      4         17.021709   0.000000
      5         18.338717   0.000000
      6         27.859544   0.000000

  0.4400000E+00  0.1200000E+00  0.1211768E-14  0.1536000E-02
      1          1.498428   1.000000
      2          6.689484   1.000000
      3         16.471759   0.000000
      4         16.711654   0.000000
      5         18.447187   0.000000
      6         23.290913   0.000000

  0.4800000E+00  0.1200000E+00  0.1212310E-14  0.1536000E-02
      1          2.380118   1.000000
      2          5.504033   1.000000
      3         15.995424   0.000000
      4         16.876143   0.000000
      5         18.633122   0.000000
      6         22.833942   0.000000

 -0.4800000E+00  0.1200000E+00  0.1300199E-14  0.1536000E-02
      1          3.333079   1.000000
      2          4.398787   1.000000
      3         15.595237   0.000000
      4         17.114774   0.000000
      5         18.896078   0.000000
      6         22.465540   0.000000

 -0.4400000E+00  0.1200000E+00  0.1305402E-14  0.1536000E-02
      1          3.333928   1.000000
      2          4.397376   1.000000
      3         15.272183   0.000000
      4         17.427739   0.000000
      5         19.235672   0.000000
      6         22.152823   0.000000

 -0.4000000E+00  0.1200000E+00  0.1299031E-14  0.1536000E-02
      1          2.380633   1.000000
      2          5.501593   1.000000
      3         15.027036   0.000000
      4         17.814293   0.000000
      5         19.650624   0.000000
      6         21.897256   0.000000

 -0.3600000E+00  0.1200000E+00  0.1352779E-14  0.1536000E-02
      1          1.498729   1.000000
      2          6.685287   1.000000
      3         14.860680   0.000000
      4         18.274500   0.000000
      5         20.139921   0.000000
      6         21.759939   0.000000

 -0.3200000E+00  0.1200000E+00  0.1288593E-14  0.1536000E-02
      1          0.695498   1.000000
      2          7.939722   0.594157
      3         14.774023   0.000000
      4         18.807333   0.000000
      5         20.700943   0.000000
      6         21.771964   0.000000

 -0.2800000E+00  0.1200000E+00  0.1262558E-14  0.1536000E-02
      1         -0.027124   1.000000
      2          9.259965  -0.004765
      3         14.769051   0.000000
      4         19.410057   0.000000
      5         21.331811   0.000000
      6         21.752279   0.000000

 -0.2400000E+00  0.1200000E+00  0.1305911E-14  0.1536000E-02
      1         -0.667765   1.000000
      2         10.638836   0.000000
      3         14.849445   0.000000
      4         20.077519   0.000000
      5         21.645712   0.000000
      6         22.079066   0.000000

 -0.2000000E+00  0.1200000E+00  0.1271785E-14  0.1536000E-02
      1         -1.225342   1.000000
      2         12.061093   0.000000
      3         15.025176   0.000000
      4         20.796617   0.000000
      5         21.744284   0.000000
      6         22.779875   0.000000

 -0.1600000E+00  0.1200000E+00  0.1291570E-14  0.1536000E-02
      1         -1.698832   1.000000
      2         13.481917   0.000000
      3         15.333467   0.000000
      4         21.514129   0.000000
      5         21.863707   0.000000
      6         23.660492   0.000000

 -0.1200000E+00  0.1200000E+00  0.1253813E-14  0.7680000E-03
      1         -2.087427   1.000000
      2         14.717919   0.000000
      3         15.944289   0.000000
      4         21.660476   0.000000
      5         22.229710   0.000000
      6         23.441215   0.000000

  0.1600000E+00  0.1600000E+00  0.1244065E-14  0.3840000E-03
      1         -2.202751   1.000000
      2         17.176183   0.000000
      3         17.176191   0.000000
      4         17.338731   0.000000
      5         20.440121   0.000000
      6         20.846061   0.000000

  0.2000000E+00  0.1600000E+00  0.1234353E-14  0.1536000E-02
      1         -1.928958   1.000000
      2         15.812639   0.000000
      3         16.796771   0.000000
      4         17.648117   0.000000
      5         19.821506   0.000000
      6         20.404998   0.000000

  0.2400000E+00  0.1600000E+00  0.1258042E-14  0.1536000E-02
      1         -1.569536   1.000000
      2         14.314690   0.000000
      3         16.491340   0.000000
      4         17.778781   0.000000
      5         18.885860   0.000000
      6         20.964780   0.000000

  0.2800000E+00  0.1600000E+00  0.1200821E-14  0.1536000E-02
      1         -1.125132   1.000000
      2         12.823398   0.000000
      3         16.260053   0.000000
      4         17.702620   0.000000
      5         18.062868   0.000000
      6         21.542229   0.000000

  0.3200000E+00  0.1600000E+00  0.1229118E-14  0.1536000E-02
      1         -0.596549   1.000000
      2         11.369244   0.000000
      3         16.102700   0.000000
      4         17.141478   0.000000
      5         17.758482   0.000000
      6         22.515169   0.000000

  0.3600000E+00  0.1600000E+00  0.1252807E-14  0.1536000E-02
      1          0.015234   1.000000
      2          9.967054   0.000000
      3         16.019372   0.000000
      4         16.426127   0.000000
      5         17.709188   0.000000
      6         23.546167   0.000000

  0.4000000E+00  0.1600000E+00  0.1239524E-14  0.1536000E-02
      1          0.709147   1.000000
      2          8.625270  -0.007507
      3         15.771166   0.000000
      4         16.010196   0.000000
      5         17.729780   0.000000
      6         24.875017   0.000000

  0.4400000E+00  0.1600000E+00  0.1235457E-14  0.1536000E-02
      1          1.483825   1.000000
      2          7.349327   1.046624
      3         15.188589   0.000000
      4         16.075172   0.000000
      5         17.821510   0.000000
      6         24.547716   0.000000

  0.4800000E+00  0.1600000E+00  0.1203635E-14  0.1536000E-02
      1          2.337478   1.000000
      2          6.143318   1.000000
      3         14.682000   0.000000
      4         16.214400   0.000000
      5         17.987988   0.000000
      6         26.207343   0.000000

 -0.4800000E+00  0.1600000E+00  0.1307706E-14  0.1536000E-02
      1          3.266015   1.000000
      2          5.012468   1.000000
      3         14.252796   0.000000
      4         16.427946   0.000000
      5         18.231192   0.000000
      6         24.439793   0.000000

 -0.4400000E+00  0.1600000E+00  0.1271275E-14  0.1536000E-02
      1          3.902679   1.000000
      2          4.324060   1.000000
      3         13.902058   0.000000
      4         16.715833   0.000000
      5         18.551562   0.000000
      6         23.351664   0.000000

 -0.4000000E+00  0.1600000E+00  0.1294964E-14  0.1536000E-02
      1          2.950476   1.000000
      2          5.374701   1.000000
      3         13.631361   0.000000
      4         17.078026   0.000000
      5         18.948495   0.000000
      6         24.855995   0.000000

 -0.3600000E+00  0.1600000E+00  0.1316349E-14  0.1536000E-02
      1          2.045319   1.000000
      2          6.527341   1.000000
      3         13.442108   0.000000
      4         17.514352   0.000000
      5         19.420874   0.000000
      6         22.936860   0.000000

 -0.3200000E+00  0.1600000E+00  0.1304191E-14  0.1536000E-02
      1          1.217315   1.000000
      2          7.749161   0.789786
      3         13.336927   0.000000
      4         18.024376   0.000000
      5         19.966379   0.000000
      6         22.871445   0.000000

 -0.2800000E+00  0.1600000E+00  0.1261974E-14  0.1536000E-02
      1          0.469132   1.000000
      2          9.031333  -0.039369
      3         13.320873   0.000000
      4         18.606841   0.000000
      5         20.581523   0.000000
      6         22.752277   0.000000

 -0.2400000E+00  0.1600000E+00  0.1299540E-14  0.1536000E-02
      1         -0.197709   1.000000
      2         10.357141   0.000000
      3         13.407416   0.000000
      4         19.259989   0.000000
      5         21.261272   0.000000
      6         22.737485   0.000000

 -0.2000000E+00  0.1600000E+00  0.1267437E-14  0.1536000E-02
      1         -0.781959   1.000000
      2         11.676399   0.000000
      3         13.641989   0.000000
      4         19.979920   0.000000
      5         21.997865   0.000000
      6         22.729264   0.000000

 -0.1600000E+00  0.1600000E+00  0.1282597E-14  0.7680000E-03
      1         -1.282653   1.000000
      2         12.801915   0.000000
      3         14.204412   0.000000
      4         20.758086   0.000000
      5         22.446766   0.000000
      6         22.785398   0.000000

  0.2000000E+00  0.2000000E+00  0.1238519E-14  0.3840000E-03
      1         -1.684446   1.000000
      2         16.390408   0.000000
      3         16.390417   0.000000
      4         16.458652   0.000000
      5         18.776471   0.000000
      6         19.809898   0.000000

  0.2400000E+00  0.2000000E+00  0.1262208E-14  0.1536000E-02
      1         -1.354337   1.000000
      2         15.027622   0.000000
      3         16.058570   0.000000
      4         16.861426   0.000000
      5         17.801469   0.000000
      6         19.780421   0.000000

  0.2800000E+00  0.2000000E+00  0.1253533E-14  0.1536000E-02
      1         -0.939221   1.000000
      2         13.575699   0.000000
      3         15.801151   0.000000
      4         16.814168   0.000000
      5         17.136824   0.000000
      6         20.184846   0.000000

  0.3200000E+00  0.2000000E+00  0.1277222E-14  0.1536000E-02
      1         -0.439897   1.000000
      2         12.132205   0.000000
      3         15.618077   0.000000
      4         16.019559   0.000000
      5         17.128174   0.000000
      6         20.970502   0.000000

  0.3600000E+00  0.2000000E+00  0.1240791E-14  0.1536000E-02
      1          0.142727   1.000000
      2         10.726773   0.000000
      3         15.259351   0.000000
      4         15.509363   0.000000
      5         17.119155   0.000000
      6         21.958043   0.000000

  0.4000000E+00  0.2000000E+00  0.1292235E-14  0.1536000E-02
      1          0.807555   1.000000
      2          9.374238   0.000000
      3         14.570272   0.000000
      4         15.474808   0.000000
      5         17.141208   0.000000
      6         23.070544   0.000000

  0.4400000E+00  0.2000000E+00  0.1223441E-14  0.1536000E-02
      1          1.553244   1.000000
      2          8.083131   0.445194
      3         13.956574   0.000000
      4         15.514474   0.000000
      5         17.220760   0.000000
      6         24.477313   0.000000

  0.4800000E+00  0.2000000E+00  0.1223983E-14  0.1536000E-02
      1          2.378067   1.000000
      2          6.858910   1.001424
      3         13.419797   0.000000
      4         15.628391   0.000000
      5         17.369259   0.000000