       N       E                     dE             d eps       ncg     rms          rms(c)
DAV:   1    -0.374519523236E+01   -0.37452E+01   -0.36684E-06  4700   0.163E-02    0.210E-03
DAV:   2    -0.374519539867E+01   -0.16632E-06   -0.18812E-06  4276   0.116E-02
   1 F= -.37451954E+01 E0= -.37451954E+01  d E =0.000000E+00
       N       E                     dE             ncg
DAV:   1     0.443498658271E+04   -0.18369E+05     3440
DAV:   2     0.356210128257E+04   -0.87289E+03     4000
DAV:   3     0.352904235268E+04   -0.33059E+02     4052
DAV:   4     0.352867567188E+04   -0.36668E+00     3784
DAV:   5     0.352866606951E+04   -0.96024E-02     3652
DAV:   6     0.352866576872E+04   -0.30079E-03     2604
DAV:   7     0.352866574485E+04   -0.23868E-04     2218
