 vasp.6.4.2 20Jul23 (build Oct 18 2023 12:49:41) complex                         
 executed on             LinuxGNU date 2025.04.11  10:54:30
 running    2 mpi-ranks, with    1 threads/rank, on    1 nodes
 distrk:  each k-point on    2 cores,    1 groups
 distr:  one band on NCORE=   1 cores,    2 groups


--------------------------------------------------------------------------------------------------------


 INCAR:
   SYSTEM = Al
   ISMEAR = -5
   ENCUT = 400
   LORBIT = 11
   NSIM = 1

 POTCAR:    PAW_PBE Al 04Jan2001                  
 POTCAR:    PAW_PBE Al 04Jan2001                  
   SHA256 =  17880443556af62b473fe41b62a467bd001ad55d2cabe504a3f22e34d4e9db96 Al/POTCAR             
   COPYR  = (c) Copyright 04Jan2001 Georg Kresse                                                    
   COPYR  = This file is part of the software VASP. Any use, copying, and all other rights are regul
   COPYR  = If you do not have a valid VASP license, you may not use, copy or distribute this file. 
   VRHFIN =Al: s2p1                                                                                 
   LEXCH  = PE                                                                                      
   EATOM  =    53.5387 eV,    3.9350 Ry                                                             
                                                                                                    
   TITEL  = PAW_PBE Al 04Jan2001                                                                    
   LULTRA =        F    use ultrasoft PP ?                                                          
   IUNSCR =        1    unscreen: 0-lin 1-nonlin 2-no                                               
   RPACOR =    1.500    partial core radius                                                         
   POMASS =   26.981; ZVAL   =    3.000    mass and valenz                                          
   RCORE  =    1.900    outmost cutoff radius                                                       
   RWIGS  =    2.650; RWIGS  =    1.402    wigner-seitz radius (au A)                               
   ENMAX  =  240.300; ENMIN  =  180.225 eV                                                          
   ICORE  =        2    local potential                                                             
   LCOR   =        T    correct aug charges                                                         
   LPAW   =        T    paw PP                                                                      
   EAUG   =  291.052                                                                                
   DEXC   =    0.000                                                                                
   RMAX   =    1.939    core radius for proj-oper                                                   
   RAUG   =    1.300    factor for augmentation sphere                                              
   RDEP   =    1.966    radius for radial grids                                                     
   RDEPT  =    1.856    core radius for aug-charge                                                  
                                                                                                    
   Atomic configuration                                                                             
    6 entries                                                                                       
     n  l   j            E        occ.                                                              
     1  0  0.50     -1511.1048   2.0000                                                             
     2  0  0.50      -108.1629   2.0000                                                             
     2  1  1.50       -69.6402   6.0000                                                             
     3  0  0.50        -7.7528   2.0000                                                             
     3  1  1.50        -2.7121   1.0000                                                             
     3  2  2.50        -2.7212   0.0000                                                             
   Description                                                                                      
     l       E           TYP  RCUT    TYP  RCUT                                                     
     0     -7.7528455     23  1.900                                                                 
     0     -3.3096929     23  1.900                                                                 
     1     -2.7120682     23  1.900                                                                 
     1     13.6058260     23  1.900                                                                 
     2     -2.7211652      7  1.900                                                                 
  local pseudopotential read in
  partial core-charges read in
  partial kinetic energy density read in
  atomic valenz-charges read in
  non local Contribution for L=           0  read in
    real space projection operators read in
  non local Contribution for L=           0  read in
    real space projection operators read in
  non local Contribution for L=           1  read in
    real space projection operators read in
  non local Contribution for L=           1  read in
    real space projection operators read in
    PAW grid and wavefunctions read in

   number of l-projection  operators is LMAX  =           4
   number of lm-projection operators is LMMAX =           8

  PAW_PBE Al 04Jan2001                  :
 energy of atom  1       EATOM=  -53.5387
 kinetic energy error for atom=    0.0005 (will be added to EATOM!!)


 POSCAR: Al
  positions in cartesian coordinates
  No initial velocities read in
 exchange correlation table for  LEXCH =        8
   RHO(1)=    0.500       N(1)  =     2000
   RHO(2)=  100.500       N(2)  =     4000



--------------------------------------------------------------------------------------------------------


 ion  position               nearest neighbor table
   1  0.000  0.000  0.000-

  LATTYP: Found a face centered cubic cell.
 ALAT       =     4.0392551645
  
  Lattice vectors:
  
 A1 = (   2.8561847177,   0.0000000000,   0.0000000000)
 A2 = (   1.4280923589,   2.4735285235,   0.0000000000)
 A3 = (   1.4280923589,   0.8245095078,   2.3320650565)


Analysis of symmetry for initial positions (statically):
=====================================================================
 Subroutine PRICEL returns:
 Original cell was already a primitive cell.
 

 Routine SETGRP: Setting up the symmetry group for a 
 face centered cubic supercell.


 Subroutine GETGRP returns: Found 48 space group operations
 (whereof 48 operations were pure point group operations)
 out of a pool of 48 trial point group operations.


The static configuration has the point symmetry O_h .


Analysis of symmetry for dynamics (positions and initial velocities):
=====================================================================
 Subroutine PRICEL returns:
 Original cell was already a primitive cell.
 

 Routine SETGRP: Setting up the symmetry group for a 
 face centered cubic supercell.


 Subroutine GETGRP returns: Found 48 space group operations
 (whereof 48 operations were pure point group operations)
 out of a pool of 48 trial point group operations.


The dynamic configuration has the point symmetry O_h .


 Subroutine INISYM returns: Found 48 space group operations
 (whereof 48 operations are pure point group operations),
 and found     1 'primitive' translations


----------------------------------------------------------------------------------------

                                     Primitive cell                                     

  volume of cell :      16.4757

  direct lattice vectors                    reciprocal lattice vectors
     2.856184718  0.000000000  0.000000000     0.350117411 -0.202140382 -0.142934835
     1.428092359  2.473528523  0.000000000     0.000000000  0.404280763 -0.142934835
     1.428092359  0.824509508  2.332065057     0.000000000  0.000000000  0.428804504

  length of vectors
     2.856184718  2.856184718  2.856184718     0.428804504  0.428804504  0.428804504

  position of ions in fractional coordinates (direct lattice)
     0.000000000  0.000000000  0.000000000

  ion indices of the primitive-cell ions
   primitive index   ion index
                 1           1

----------------------------------------------------------------------------------------



 KPOINTS: Al             # System label           

Automatic generation of k-mesh.
 Grid dimensions read from file:
 generate k-points for:   25   25   25

 Generating k-lattice:

  Cartesian coordinates                     Fractional coordinates (reciprocal lattice)
     0.014004696 -0.008085615 -0.005717393     0.040000000  0.000000000  0.000000000
     0.000000000  0.016171231 -0.005717393     0.000000000  0.040000000 -0.000000000
     0.000000000  0.000000000  0.017152180     0.000000000  0.000000000  0.040000000

  Length of vectors
     0.017152180  0.017152180  0.017152180

  Shift w.r.t. Gamma in fractional coordinates (k-lattice)
     0.000000000  0.000000000  0.000000000

 TETIRR: Found   2119 inequivalent tetrahedra from    93750
 
 Subroutine IBZKPT returns following result:
 ===========================================
 
 Found    455 irreducible k-points:
 
 Following reciprocal coordinates:
            Coordinates               Weight
  0.000000  0.000000  0.000000      1.000000
  0.040000  0.000000  0.000000      8.000000
  0.080000  0.000000  0.000000      8.000000
  0.120000  0.000000  0.000000      8.000000
  0.160000  0.000000  0.000000      8.000000
  0.200000  0.000000  0.000000      8.000000
  0.240000  0.000000  0.000000      8.000000
  0.280000  0.000000  0.000000      8.000000
  0.320000  0.000000  0.000000      8.000000
  0.360000  0.000000  0.000000      8.000000
  0.400000  0.000000  0.000000      8.000000
  0.440000  0.000000  0.000000      8.000000
  0.480000  0.000000  0.000000      8.000000
  0.040000  0.040000  0.000000      6.000000
  0.080000  0.040000  0.000000     24.000000
  0.120000  0.040000  0.000000     24.000000
  0.160000  0.040000  0.000000     24.000000
  0.200000  0.040000  0.000000     24.000000
  0.240000  0.040000  0.000000     24.000000
  0.280000  0.040000  0.000000     24.000000
  0.320000  0.040000  0.000000     24.000000
  0.360000  0.040000  0.000000     24.000000
  0.400000  0.040000  0.000000     24.000000
  0.440000  0.040000  0.000000     24.000000
  0.480000  0.040000  0.000000     24.000000
 -0.480000  0.040000  0.000000     24.000000
 -0.440000  0.040000  0.000000     24.000000
 -0.400000  0.040000  0.000000     24.000000
 -0.360000  0.040000  0.000000     24.000000
 -0.320000  0.040000  0.000000     24.000000
 -0.280000  0.040000  0.000000     24.000000
 -0.240000  0.040000  0.000000     24.000000
 -0.200000  0.040000  0.000000     24.000000
 -0.160000  0.040000  0.000000     24.000000
 -0.120000  0.040000  0.000000     24.000000
 -0.080000  0.040000  0.000000     24.000000
 -0.040000  0.040000  0.000000     12.000000
  0.080000  0.080000  0.000000      6.000000
  0.120000  0.080000  0.000000     24.000000
  0.160000  0.080000  0.000000     24.000000
  0.200000  0.080000  0.000000     24.000000
  0.240000  0.080000  0.000000     24.000000
  0.280000  0.080000  0.000000     24.000000
  0.320000  0.080000  0.000000     24.000000
  0.360000  0.080000  0.000000     24.000000
  0.400000  0.080000  0.000000     24.000000
  0.440000  0.080000  0.000000     24.000000
  0.480000  0.080000  0.000000     24.000000
 -0.480000  0.080000  0.000000     24.000000
 -0.440000  0.080000  0.000000     24.000000
 -0.400000  0.080000  0.000000     24.000000
 -0.360000  0.080000  0.000000     24.000000
 -0.320000  0.080000  0.000000     24.000000
 -0.280000  0.080000  0.000000     24.000000
 -0.240000  0.080000  0.000000     24.000000
 -0.200000  0.080000  0.000000     24.000000
 -0.160000  0.080000  0.000000     24.000000
 -0.120000  0.080000  0.000000     24.000000
 -0.080000  0.080000  0.000000     12.000000
  0.120000  0.120000  0.000000      6.000000
  0.160000  0.120000  0.000000     24.000000
  0.200000  0.120000  0.000000     24.000000
  0.240000  0.120000  0.000000     24.000000
  0.280000  0.120000  0.000000     24.000000
  0.320000  0.120000  0.000000     24.000000
  0.360000  0.120000  0.000000     24.000000
  0.400000  0.120000  0.000000     24.000000
  0.440000  0.120000  0.000000     24.000000
  0.480000  0.120000  0.000000     24.000000
 -0.480000  0.120000  0.000000     24.000000
 -0.440000  0.120000  0.000000     24.000000
 -0.400000  0.120000  0.000000     24.000000
 -0.360000  0.120000  0.000000     24.000000
 -0.320000  0.120000  0.000000     24.000000
 -0.280000  0.120000  0.000000     24.000000
 -0.240000  0.120000  0.000000     24.000000
 -0.200000  0.120000  0.000000     24.000000
 -0.160000  0.120000  0.000000     24.000000
 -0.120000  0.120000  0.000000     12.000000
  0.160000  0.160000  0.000000      6.000000
  0.200000  0.160000  0.000000     24.000000
  0.240000  0.160000  0.000000     24.000000
  0.280000  0.160000  0.000000     24.000000
  0.320000  0.160000  0.000000     24.000000
  0.360000  0.160000  0.000000     24.000000
  0.400000  0.160000  0.000000     24.000000
  0.440000  0.160000  0.000000     24.000000
  0.480000  0.160000  0.000000     24.000000
 -0.480000  0.160000  0.000000     24.000000
 -0.440000  0.160000  0.000000     24.000000
 -0.400000  0.160000  0.000000     24.000000
 -0.360000  0.160000  0.000000     24.000000
 -0.320000  0.160000  0.000000     24.000000
 -0.280000  0.160000  0.000000     24.000000
 -0.240000  0.160000  0.000000     24.000000
 -0.200000  0.160000  0.000000     24.000000
 -0.160000  0.160000  0.000000     12.000000
  0.200000  0.200000  0.000000      6.000000
  0.240000  0.200000  0.000000     24.000000
  0.280000  0.200000  0.000000     24.000000
  0.320000  0.200000  0.000000     24.000000
  0.360000  0.200000  0.000000     24.000000
  0.400000  0.200000  0.000000     24.000000
  0.440000  0.200000  0.000000     24.000000
  0.480000  0.200000  0.000000     24.000000
 -0.480000  0.200000  0.000000     24.000000
 -0.440000  0.200000  0.000000     24.000000
 -0.400000  0.200000  0.000000     24.000000
 -0.360000  0.200000  0.000000     24.000000
 -0.320000  0.200000  0.000000     24.000000
 -0.280000  0.200000  0.000000     24.000000
 -0.240000  0.200000  0.000000     24.000000
 -0.200000  0.200000  0.000000     12.000000
  0.240000  0.240000  0.000000      6.000000
  0.280000  0.240000  0.000000     24.000000
  0.320000  0.240000  0.000000     24.000000
  0.360000  0.240000  0.000000     24.000000
  0.400000  0.240000  0.000000     24.000000
  0.440000  0.240000  0.000000     24.000000
  0.480000  0.240000  0.000000     24.000000
 -0.480000  0.240000  0.000000     24.000000
 -0.440000  0.240000  0.000000     24.000000
 -0.400000  0.240000  0.000000     24.000000
 -0.360000  0.240000  0.000000     24.000000
 -0.320000  0.240000  0.000000     24.000000
 -0.280000  0.240000  0.000000     24.000000
 -0.240000  0.240000  0.000000     12.000000
  0.280000  0.280000  0.000000      6.000000
  0.320000  0.280000  0.000000     24.000000
  0.360000  0.280000  0.000000     24.000000
  0.400000  0.280000  0.000000     24.000000
  0.440000  0.280000  0.000000     24.000000
  0.480000  0.280000  0.000000     24.000000
 -0.480000  0.280000  0.000000     24.000000
 -0.440000  0.280000  0.000000     24.000000
 -0.400000  0.280000  0.000000     24.000000
 -0.360000  0.280000  0.000000     24.000000
 -0.320000  0.280000  0.000000     24.000000
 -0.280000  0.280000  0.000000     12.000000
  0.320000  0.320000  0.000000      6.000000
  0.360000  0.320000  0.000000     24.000000
  0.400000  0.320000  0.000000     24.000000
  0.440000  0.320000  0.000000     24.000000
  0.480000  0.320000  0.000000     24.000000
 -0.480000  0.320000  0.000000     24.000000
 -0.440000  0.320000  0.000000     24.000000
 -0.400000  0.320000  0.000000     24.000000
 -0.360000  0.320000  0.000000     24.000000
 -0.320000  0.320000  0.000000     12.000000
  0.360000  0.360000  0.000000      6.000000
  0.400000  0.360000  0.000000     24.000000
  0.440000  0.360000  0.000000     24.000000
  0.480000  0.360000  0.000000     24.000000
 -0.480000  0.360000  0.000000     24.000000
 -0.440000  0.360000  0.000000     24.000000
 -0.400000  0.360000  0.000000     24.000000
 -0.360000  0.360000  0.000000     12.000000
  0.400000  0.400000  0.000000      6.000000
  0.440000  0.400000  0.000000     24.000000
  0.480000  0.400000  0.000000     24.000000
 -0.480000  0.400000  0.000000     24.000000
 -0.440000  0.400000  0.000000     24.000000
 -0.400000  0.400000  0.000000     12.000000
  0.440000  0.440000  0.000000      6.000000
  0.480000  0.440000  0.000000     24.000000
 -0.480000  0.440000  0.000000     24.000000
 -0.440000  0.440000  0.000000     12.000000
  0.480000  0.480000  0.000000      6.000000
 -0.480000  0.480000  0.000000     12.000000
  0.120000  0.080000  0.040000     24.000000
  0.160000  0.080000  0.040000     48.000000
  0.200000  0.080000  0.040000     48.000000
  0.240000  0.080000  0.040000     48.000000
  0.280000  0.080000  0.040000     48.000000
  0.320000  0.080000  0.040000     48.000000
  0.360000  0.080000  0.040000     48.000000
  0.400000  0.080000  0.040000     48.000000
  0.440000  0.080000  0.040000     48.000000
  0.480000  0.080000  0.040000     48.000000
 -0.480000  0.080000  0.040000     48.000000
  0.160000  0.120000  0.040000     24.000000
  0.200000  0.120000  0.040000     48.000000
  0.240000  0.120000  0.040000     48.000000
  0.280000  0.120000  0.040000     48.000000
  0.320000  0.120000  0.040000     48.000000
  0.360000  0.120000  0.040000     48.000000
  0.400000  0.120000  0.040000     48.000000
  0.440000  0.120000  0.040000     48.000000
  0.480000  0.120000  0.040000     48.000000
 -0.480000  0.120000  0.040000     48.000000
 -0.440000  0.120000  0.040000     48.000000
 -0.400000  0.120000  0.040000     48.000000
 -0.360000  0.120000  0.040000     48.000000
 -0.320000  0.120000  0.040000     48.000000
 -0.280000  0.120000  0.040000     48.000000
 -0.240000  0.120000  0.040000     48.000000
 -0.200000  0.120000  0.040000     48.000000
 -0.160000  0.120000  0.040000     48.000000
 -0.120000  0.120000  0.040000     48.000000
 -0.080000  0.120000  0.040000     24.000000
  0.200000  0.160000  0.040000     24.000000
  0.240000  0.160000  0.040000     48.000000
  0.280000  0.160000  0.040000     48.000000
  0.320000  0.160000  0.040000     48.000000
  0.360000  0.160000  0.040000     48.000000
  0.400000  0.160000  0.040000     48.000000
  0.440000  0.160000  0.040000     48.000000
  0.480000  0.160000  0.040000     48.000000
 -0.480000  0.160000  0.040000     48.000000
 -0.440000  0.160000  0.040000     48.000000
 -0.400000  0.160000  0.040000     48.000000
 -0.360000  0.160000  0.040000     48.000000
 -0.320000  0.160000  0.040000     48.000000
 -0.280000  0.160000  0.040000     48.000000
 -0.240000  0.160000  0.040000     48.000000
 -0.200000  0.160000  0.040000     48.000000
 -0.160000  0.160000  0.040000     48.000000
 -0.120000  0.160000  0.040000     24.000000
  0.240000  0.200000  0.040000     24.000000
  0.280000  0.200000  0.040000     48.000000
  0.320000  0.200000  0.040000     48.000000
  0.360000  0.200000  0.040000     48.000000
  0.400000  0.200000  0.040000     48.000000
  0.440000  0.200000  0.040000     48.000000
  0.480000  0.200000  0.040000     48.000000
 -0.480000  0.200000  0.040000     48.000000
 -0.440000  0.200000  0.040000     48.000000
 -0.400000  0.200000  0.040000     48.000000
 -0.360000  0.200000  0.040000     48.000000
 -0.320000  0.200000  0.040000     48.000000
 -0.280000  0.200000  0.040000     48.000000
 -0.240000  0.200000  0.040000     48.000000
 -0.200000  0.200000  0.040000     48.000000
 -0.160000  0.200000  0.040000     24.000000
  0.280000  0.240000  0.040000     24.000000
  0.320000  0.240000  0.040000     48.000000
  0.360000  0.240000  0.040000     48.000000
  0.400000  0.240000  0.040000     48.000000
  0.440000  0.240000  0.040000     48.000000
  0.480000  0.240000  0.040000     48.000000
 -0.480000  0.240000  0.040000     48.000000
 -0.440000  0.240000  0.040000     48.000000
 -0.400000  0.240000  0.040000     48.000000
 -0.360000  0.240000  0.040000     48.000000
 -0.320000  0.240000  0.040000     48.000000
 -0.280000  0.240000  0.040000     48.000000
 -0.240000  0.240000  0.040000     48.000000
 -0.200000  0.240000  0.040000     24.000000
  0.320000  0.280000  0.040000     24.000000
  0.360000  0.280000  0.040000     48.000000
  0.400000  0.280000  0.040000     48.000000
  0.440000  0.280000  0.040000     48.000000
  0.480000  0.280000  0.040000     48.000000
 -0.480000  0.280000  0.040000     48.000000
 -0.440000  0.280000  0.040000     48.000000
 -0.400000  0.280000  0.040000     48.000000
 -0.360000  0.280000  0.040000     48.000000
 -0.320000  0.280000  0.040000     48.000000
 -0.280000  0.280000  0.040000     48.000000
 -0.240000  0.280000  0.040000     24.000000
  0.360000  0.320000  0.040000     24.000000
  0.400000  0.320000  0.040000     48.000000
  0.440000  0.320000  0.040000     48.000000
  0.480000  0.320000  0.040000     48.000000
 -0.480000  0.320000  0.040000     48.000000
 -0.440000  0.320000  0.040000     48.000000
 -0.400000  0.320000  0.040000     48.000000
 -0.360000  0.320000  0.040000     48.000000
 -0.320000  0.320000  0.040000     48.000000
 -0.280000  0.320000  0.040000     24.000000
  0.400000  0.360000  0.040000     24.000000
  0.440000  0.360000  0.040000     48.000000
  0.480000  0.360000  0.040000     48.000000
 -0.480000  0.360000  0.040000     48.000000
 -0.440000  0.360000  0.040000     48.000000
 -0.400000  0.360000  0.040000     48.000000
 -0.360000  0.360000  0.040000     48.000000
 -0.320000  0.360000  0.040000     24.000000
  0.440000  0.400000  0.040000     24.000000
  0.480000  0.400000  0.040000     48.000000
 -0.480000  0.400000  0.040000     48.000000
 -0.440000  0.400000  0.040000     48.000000
 -0.400000  0.400000  0.040000     48.000000
 -0.360000  0.400000  0.040000     24.000000
  0.480000  0.440000  0.040000     24.000000
 -0.480000  0.440000  0.040000     48.000000
 -0.440000  0.440000  0.040000     48.000000
 -0.400000  0.440000  0.040000     24.000000
 -0.480000  0.480000  0.040000     24.000000
 -0.440000  0.480000  0.040000     24.000000
  0.240000  0.160000  0.080000     24.000000
  0.280000  0.160000  0.080000     48.000000
  0.320000  0.160000  0.080000     48.000000
  0.360000  0.160000  0.080000     48.000000
  0.400000  0.160000  0.080000     48.000000
  0.440000  0.160000  0.080000     48.000000
  0.480000  0.160000  0.080000     48.000000
 -0.480000  0.160000  0.080000     48.000000
 -0.440000  0.160000  0.080000     48.000000
  0.280000  0.200000  0.080000     24.000000
  0.320000  0.200000  0.080000     48.000000
  0.360000  0.200000  0.080000     48.000000
  0.400000  0.200000  0.080000     48.000000
  0.440000  0.200000  0.080000     48.000000
  0.480000  0.200000  0.080000     48.000000
 -0.480000  0.200000  0.080000     48.000000
 -0.440000  0.200000  0.080000     48.000000
 -0.400000  0.200000  0.080000     48.000000
 -0.360000  0.200000  0.080000     48.000000
 -0.320000  0.200000  0.080000     48.000000
 -0.280000  0.200000  0.080000     48.000000
 -0.240000  0.200000  0.080000     48.000000
 -0.200000  0.200000  0.080000     48.000000
 -0.160000  0.200000  0.080000     48.000000
 -0.120000  0.200000  0.080000     24.000000
  0.320000  0.240000  0.080000     24.000000
  0.360000  0.240000  0.080000     48.000000
  0.400000  0.240000  0.080000     48.000000
  0.440000  0.240000  0.080000     48.000000
  0.480000  0.240000  0.080000     48.000000
 -0.480000  0.240000  0.080000     48.000000
 -0.440000  0.240000  0.080000     48.000000
 -0.400000  0.240000  0.080000     48.000000
 -0.360000  0.240000  0.080000     48.000000
 -0.320000  0.240000  0.080000     48.000000
 -0.280000  0.240000  0.080000     48.000000
 -0.240000  0.240000  0.080000     48.000000
 -0.200000  0.240000  0.080000     48.000000
 -0.160000  0.240000  0.080000     24.000000
  0.360000  0.280000  0.080000     24.000000
  0.400000  0.280000  0.080000     48.000000
  0.440000  0.280000  0.080000     48.000000
  0.480000  0.280000  0.080000     48.000000
 -0.480000  0.280000  0.080000     48.000000
 -0.440000  0.280000  0.080000     48.000000
 -0.400000  0.280000  0.080000     48.000000
 -0.360000  0.280000  0.080000     48.000000
 -0.320000  0.280000  0.080000     48.000000
 -0.280000  0.280000  0.080000     48.000000
 -0.240000  0.280000  0.080000     48.000000
 -0.200000  0.280000  0.080000     24.000000
  0.400000  0.320000  0.080000     24.000000
  0.440000  0.320000  0.080000     48.000000
  0.480000  0.320000  0.080000     48.000000
 -0.480000  0.320000  0.080000     48.000000
 -0.440000  0.320000  0.080000     48.000000
 -0.400000  0.320000  0.080000     48.000000
 -0.360000  0.320000  0.080000     48.000000
 -0.320000  0.320000  0.080000     48.000000
 -0.280000  0.320000  0.080000     48.000000
 -0.240000  0.320000  0.080000     24.000000
  0.440000  0.360000  0.080000     24.000000
  0.480000  0.360000  0.080000     48.000000
 -0.480000  0.360000  0.080000     48.000000
 -0.440000  0.360000  0.080000     48.000000
 -0.400000  0.360000  0.080000     48.000000
 -0.360000  0.360000  0.080000     48.000000
 -0.320000  0.360000  0.080000     48.000000
 -0.280000  0.360000  0.080000     24.000000
  0.480000  0.400000  0.080000     24.000000
 -0.480000  0.400000  0.080000     48.000000
 -0.440000  0.400000  0.080000     48.000000
 -0.400000  0.400000  0.080000     48.000000
 -0.360000  0.400000  0.080000     48.000000
 -0.320000  0.400000  0.080000     24.000000
 -0.480000  0.440000  0.080000     24.000000
 -0.440000  0.440000  0.080000     48.000000
 -0.400000  0.440000  0.080000     48.000000
 -0.360000  0.440000  0.080000     24.000000
 -0.440000  0.480000  0.080000     24.000000
 -0.400000  0.480000  0.080000     24.000000
  0.360000  0.240000  0.120000     24.000000
  0.400000  0.240000  0.120000     48.000000
  0.440000  0.240000  0.120000     48.000000
  0.480000  0.240000  0.120000     48.000000
 -0.480000  0.240000  0.120000     48.000000
 -0.440000  0.240000  0.120000     48.000000
 -0.400000  0.240000  0.120000     48.000000
  0.400000  0.280000  0.120000     24.000000
  0.440000  0.280000  0.120000     48.000000
  0.480000  0.280000  0.120000     48.000000
 -0.480000  0.280000  0.120000     48.000000
 -0.440000  0.280000  0.120000     48.000000
 -0.400000  0.280000  0.120000     48.000000
 -0.360000  0.280000  0.120000     48.000000
 -0.320000  0.280000  0.120000     48.000000
 -0.280000  0.280000  0.120000     48.000000
 -0.240000  0.280000  0.120000     48.000000
 -0.200000  0.280000  0.120000     48.000000
 -0.160000  0.280000  0.120000     24.000000
  0.440000  0.320000  0.120000     24.000000
  0.480000  0.320000  0.120000     48.000000
 -0.480000  0.320000  0.120000     48.000000
 -0.440000  0.320000  0.120000     48.000000
 -0.400000  0.320000  0.120000     48.000000
 -0.360000  0.320000  0.120000     48.000000
 -0.320000  0.320000  0.120000     48.000000
 -0.280000  0.320000  0.120000     48.000000
 -0.240000  0.320000  0.120000     48.000000
 -0.200000  0.320000  0.120000     24.000000
  0.480000  0.360000  0.120000     24.000000
 -0.480000  0.360000  0.120000     48.000000
 -0.440000  0.360000  0.120000     48.000000
 -0.400000  0.360000  0.120000     48.000000
 -0.360000  0.360000  0.120000     48.000000
 -0.320000  0.360000  0.120000     48.000000
 -0.280000  0.360000  0.120000     48.000000
 -0.240000  0.360000  0.120000     24.000000
 -0.480000  0.400000  0.120000     24.000000
 -0.440000  0.400000  0.120000     48.000000
 -0.400000  0.400000  0.120000     48.000000
 -0.360000  0.400000  0.120000     48.000000
 -0.320000  0.400000  0.120000     48.000000
 -0.280000  0.400000  0.120000     24.000000
 -0.440000  0.440000  0.120000     24.000000
 -0.400000  0.440000  0.120000     48.000000
 -0.360000  0.440000  0.120000     48.000000
 -0.320000  0.440000  0.120000     24.000000
 -0.400000  0.480000  0.120000     24.000000
 -0.360000  0.480000  0.120000     24.000000
  0.480000  0.320000  0.160000     24.000000
 -0.480000  0.320000  0.160000     48.000000
 -0.440000  0.320000  0.160000     48.000000
 -0.400000  0.320000  0.160000     48.000000
 -0.360000  0.320000  0.160000     48.000000
 -0.480000  0.360000  0.160000     24.000000
 -0.440000  0.360000  0.160000     48.000000
 -0.400000  0.360000  0.160000     48.000000
 -0.360000  0.360000  0.160000     48.000000
 -0.320000  0.360000  0.160000     48.000000
 -0.280000  0.360000  0.160000     48.000000
 -0.240000  0.360000  0.160000     48.000000
 -0.200000  0.360000  0.160000     24.000000
 -0.440000  0.400000  0.160000     24.000000
 -0.400000  0.400000  0.160000     48.000000
 -0.360000  0.400000  0.160000     48.000000
 -0.320000  0.400000  0.160000     48.000000
 -0.280000  0.400000  0.160000     48.000000
 -0.240000  0.400000  0.160000     24.000000
 -0.400000  0.440000  0.160000     24.000000
 -0.360000  0.440000  0.160000     48.000000
 -0.320000  0.440000  0.160000     48.000000
 -0.280000  0.440000  0.160000     24.000000
 -0.360000  0.480000  0.160000     24.000000
 -0.320000  0.480000  0.160000     24.000000
 -0.400000  0.400000  0.200000     24.000000
 -0.360000  0.400000  0.200000     48.000000
 -0.320000  0.400000  0.200000     48.000000
 -0.360000  0.440000  0.200000     24.000000
 -0.320000  0.440000  0.200000     48.000000
 -0.280000  0.440000  0.200000     48.000000
 -0.240000  0.440000  0.200000     24.000000
 -0.320000  0.480000  0.200000     24.000000
 -0.280000  0.480000  0.200000     24.000000
 -0.280000  0.480000  0.240000     24.000000
 
 Following cartesian coordinates:
            Coordinates               Weight
  0.000000  0.000000  0.000000      1.000000
  0.013969 -0.008065 -0.005703      8.000000
  0.027939 -0.016130 -0.011406      8.000000
  0.041908 -0.024196 -0.017109      8.000000
  0.055878 -0.032261 -0.022812      8.000000
  0.069847 -0.040326 -0.028515      8.000000
  0.083816 -0.048391 -0.034218      8.000000
  0.097786 -0.056457 -0.039921      8.000000
  0.111755 -0.064522 -0.045624      8.000000
  0.125725 -0.072587 -0.051327      8.000000
  0.139694 -0.080652 -0.057030      8.000000
  0.153663 -0.088718 -0.062733      8.000000
  0.167633 -0.096783 -0.068436      8.000000
  0.013969  0.008065 -0.011406      6.000000
  0.027939  0.000000 -0.017109     24.000000
  0.041908 -0.008065 -0.022812     24.000000
  0.055878 -0.016130 -0.028515     24.000000
  0.069847 -0.024196 -0.034218     24.000000
  0.083816 -0.032261 -0.039921     24.000000
  0.097786 -0.040326 -0.045624     24.000000
  0.111755 -0.048391 -0.051327     24.000000
  0.125725 -0.056457 -0.057030     24.000000
  0.139694 -0.064522 -0.062733     24.000000
  0.153663 -0.072587 -0.068436     24.000000
  0.167633 -0.080652 -0.074139     24.000000
 -0.167633  0.112913  0.062733     24.000000
 -0.153663  0.104848  0.057030     24.000000
 -0.139694  0.096783  0.051327     24.000000
 -0.125725  0.088718  0.045624     24.000000
 -0.111755  0.080652  0.039921     24.000000
 -0.097786  0.072587  0.034218     24.000000
 -0.083816  0.064522  0.028515     24.000000
 -0.069847  0.056457  0.022812     24.000000
 -0.055878  0.048391  0.017109     24.000000
 -0.041908  0.040326  0.011406     24.000000
 -0.027939  0.032261  0.005703     24.000000
 -0.013969  0.024196  0.000000     12.000000
  0.027939  0.016130 -0.022812      6.000000
  0.041908  0.008065 -0.028515     24.000000
  0.055878  0.000000 -0.034218     24.000000
  0.069847 -0.008065 -0.039921     24.000000
  0.083816 -0.016130 -0.045624     24.000000
  0.097786 -0.024196 -0.051327     24.000000
  0.111755 -0.032261 -0.057030     24.000000
  0.125725 -0.040326 -0.062733     24.000000
  0.139694 -0.048391 -0.068436     24.000000
  0.153663 -0.056457 -0.074139     24.000000
  0.167633 -0.064522 -0.079842     24.000000
 -0.167633  0.129044  0.057030     24.000000
 -0.153663  0.120979  0.051327     24.000000
 -0.139694  0.112913  0.045624     24.000000
 -0.125725  0.104848  0.039921     24.000000
 -0.111755  0.096783  0.034218     24.000000
 -0.097786  0.088718  0.028515     24.000000
 -0.083816  0.080652  0.022812     24.000000
 -0.069847  0.072587  0.017109     24.000000
 -0.055878  0.064522  0.011406     24.000000
 -0.041908  0.056457  0.005703     24.000000
 -0.027939  0.048391  0.000000     12.000000
  0.041908  0.024196 -0.034218      6.000000
  0.055878  0.016130 -0.039921     24.000000
  0.069847  0.008065 -0.045624     24.000000
  0.083816 -0.000000 -0.051327     24.000000
  0.097786 -0.008065 -0.057030     24.000000
  0.111755 -0.016130 -0.062733     24.000000
  0.125725 -0.024196 -0.068436     24.000000
  0.139694 -0.032261 -0.074139     24.000000
  0.153663 -0.040326 -0.079842     24.000000
  0.167633 -0.048391 -0.085545     24.000000
 -0.167633  0.145174  0.051327     24.000000
 -0.153663  0.137109  0.045624     24.000000
 -0.139694  0.129044  0.039921     24.000000
 -0.125725  0.120979  0.034218     24.000000
 -0.111755  0.112913  0.028515     24.000000
 -0.097786  0.104848  0.022812     24.000000
 -0.083816  0.096783  0.017109     24.000000
 -0.069847  0.088718  0.011406     24.000000
 -0.055878  0.080652  0.005703     24.000000
 -0.041908  0.072587  0.000000     12.000000
  0.055878  0.032261 -0.045624      6.000000
  0.069847  0.024196 -0.051327     24.000000
  0.083816  0.016130 -0.057030     24.000000
  0.097786  0.008065 -0.062733     24.000000
  0.111755 -0.000000 -0.068436     24.000000
  0.125725 -0.008065 -0.074139     24.000000
  0.139694 -0.016130 -0.079842     24.000000
  0.153663 -0.024196 -0.085545     24.000000
  0.167633 -0.032261 -0.091248     24.000000
 -0.167633  0.161305  0.045624     24.000000
 -0.153663  0.153240  0.039921     24.000000
 -0.139694  0.145174  0.034218     24.000000
 -0.125725  0.137109  0.028515     24.000000
 -0.111755  0.129044  0.022812     24.000000
 -0.097786  0.120979  0.017109     24.000000
 -0.083816  0.112913  0.011406     24.000000
 -0.069847  0.104848  0.005703     24.000000
 -0.055878  0.096783  0.000000     12.000000
  0.069847  0.040326 -0.057030      6.000000
  0.083816  0.032261 -0.062733     24.000000
  0.097786  0.024196 -0.068436     24.000000
  0.111755  0.016130 -0.074139     24.000000
  0.125725  0.008065 -0.079842     24.000000
  0.139694  0.000000 -0.085545     24.000000
  0.153663 -0.008065 -0.091248     24.000000
  0.167633 -0.016130 -0.096951     24.000000
 -0.167633  0.177435  0.039921     24.000000
 -0.153663  0.169370  0.034218     24.000000
 -0.139694  0.161305  0.028515     24.000000
 -0.125725  0.153240  0.022812     24.000000
 -0.111755  0.145174  0.017109     24.000000
 -0.097786  0.137109  0.011406     24.000000
 -0.083816  0.129044  0.005703     24.000000
 -0.069847  0.120979  0.000000     12.000000
  0.083816  0.048391 -0.068436      6.000000
  0.097786  0.040326 -0.074139     24.000000
  0.111755  0.032261 -0.079842     24.000000
  0.125725  0.024196 -0.085545     24.000000
  0.139694  0.016130 -0.091248     24.000000
  0.153663  0.008065 -0.096951     24.000000
  0.167633  0.000000 -0.102654     24.000000
 -0.167633  0.193566  0.034218     24.000000
 -0.153663  0.185501  0.028515     24.000000
 -0.139694  0.177435  0.022812     24.000000
 -0.125725  0.169370  0.017109     24.000000
 -0.111755  0.161305  0.011406     24.000000
 -0.097786  0.153240  0.005703     24.000000
 -0.083816  0.145174  0.000000     12.000000
  0.097786  0.056457 -0.079842      6.000000
  0.111755  0.048391 -0.085545     24.000000
  0.125725  0.040326 -0.091248     24.000000
  0.139694  0.032261 -0.096951     24.000000
  0.153663  0.024196 -0.102654     24.000000
  0.167633  0.016130 -0.108357     24.000000
 -0.167633  0.209696  0.028515     24.000000
 -0.153663  0.201631  0.022812     24.000000
 -0.139694  0.193566  0.017109     24.000000
 -0.125725  0.185501  0.011406     24.000000
 -0.111755  0.177435  0.005703     24.000000
 -0.097786  0.169370  0.000000     12.000000
  0.111755  0.064522 -0.091248      6.000000
  0.125725  0.056457 -0.096951     24.000000
  0.139694  0.048391 -0.102654     24.000000
  0.153663  0.040326 -0.108357     24.000000
  0.167633  0.032261 -0.114060     24.000000
 -0.167633  0.225827  0.022812     24.000000
 -0.153663  0.217762  0.017109     24.000000
 -0.139694  0.209696  0.011406     24.000000
 -0.125725  0.201631  0.005703     24.000000
 -0.111755  0.193566  0.000000     12.000000
  0.125725  0.072587 -0.102654      6.000000
  0.139694  0.064522 -0.108357     24.000000
  0.153663  0.056457 -0.114060     24.000000
  0.167633  0.048391 -0.119763     24.000000
 -0.167633  0.241957  0.017109     24.000000
 -0.153663  0.233892  0.011406     24.000000
 -0.139694  0.225827  0.005703     24.000000
 -0.125725  0.217762  0.000000     12.000000
  0.139694  0.080652 -0.114060      6.000000
  0.153663  0.072587 -0.119763     24.000000
  0.167633  0.064522 -0.125466     24.000000
 -0.167633  0.258088  0.011406     24.000000
 -0.153663  0.250022  0.005703     24.000000
 -0.139694  0.241957  0.000000     12.000000
  0.153663  0.088718 -0.125466      6.000000
  0.167633  0.080652 -0.131169     24.000000
 -0.167633  0.274218  0.005703     24.000000
 -0.153663  0.266153  0.000000     12.000000
  0.167633  0.096783 -0.136872      6.000000
 -0.167633  0.290349  0.000000     12.000000
  0.041908  0.008065 -0.011406     24.000000
  0.055878  0.000000 -0.017109     48.000000
  0.069847 -0.008065 -0.022812     48.000000
  0.083816 -0.016130 -0.028515     48.000000
  0.097786 -0.024196 -0.034218     48.000000
  0.111755 -0.032261 -0.039921     48.000000
  0.125725 -0.040326 -0.045624     48.000000
  0.139694 -0.048391 -0.051327     48.000000
  0.153663 -0.056457 -0.057030     48.000000
  0.167633 -0.064522 -0.062733     48.000000
 -0.167633  0.129044  0.074139     48.000000
  0.055878  0.016130 -0.022812     24.000000
  0.069847  0.008065 -0.028515     48.000000
  0.083816 -0.000000 -0.034218     48.000000
  0.097786 -0.008065 -0.039921     48.000000
  0.111755 -0.016130 -0.045624     48.000000
  0.125725 -0.024196 -0.051327     48.000000
  0.139694 -0.032261 -0.057030     48.000000
  0.153663 -0.040326 -0.062733     48.000000
  0.167633 -0.048391 -0.068436     48.000000
 -0.167633  0.145174  0.068436     48.000000
 -0.153663  0.137109  0.062733     48.000000
 -0.139694  0.129044  0.057030     48.000000
 -0.125725  0.120979  0.051327     48.000000
 -0.111755  0.112913  0.045624     48.000000
 -0.097786  0.104848  0.039921     48.000000
 -0.083816  0.096783  0.034218     48.000000
 -0.069847  0.088718  0.028515     48.000000
 -0.055878  0.080652  0.022812     48.000000
 -0.041908  0.072587  0.017109     48.000000
 -0.027939  0.064522  0.011406     24.000000
  0.069847  0.024196 -0.034218     24.000000
  0.083816  0.016130 -0.039921     48.000000
  0.097786  0.008065 -0.045624     48.000000
  0.111755 -0.000000 -0.051327     48.000000
  0.125725 -0.008065 -0.057030     48.000000
  0.139694 -0.016130 -0.062733     48.000000
  0.153663 -0.024196 -0.068436     48.000000
  0.167633 -0.032261 -0.074139     48.000000
 -0.167633  0.161305  0.062733     48.000000
 -0.153663  0.153240  0.057030     48.000000
 -0.139694  0.145174  0.051327     48.000000
 -0.125725  0.137109  0.045624     48.000000
 -0.111755  0.129044  0.039921     48.000000
 -0.097786  0.120979  0.034218     48.000000
 -0.083816  0.112913  0.028515     48.000000
 -0.069847  0.104848  0.022812     48.000000
 -0.055878  0.096783  0.017109     48.000000
 -0.041908  0.088718  0.011406     24.000000
  0.083816  0.032261 -0.045624     24.000000
  0.097786  0.024196 -0.051327     48.000000
  0.111755  0.016130 -0.057030     48.000000
  0.125725  0.008065 -0.062733     48.000000
  0.139694  0.000000 -0.068436     48.000000
  0.153663 -0.008065 -0.074139     48.000000
  0.167633 -0.016130 -0.079842     48.000000
 -0.167633  0.177435  0.057030     48.000000
 -0.153663  0.169370  0.051327     48.000000
 -0.139694  0.161305  0.045624     48.000000
 -0.125725  0.153240  0.039921     48.000000
 -0.111755  0.145174  0.034218     48.000000
 -0.097786  0.137109  0.028515     48.000000
 -0.083816  0.129044  0.022812     48.000000
 -0.069847  0.120979  0.017109     48.000000
 -0.055878  0.112913  0.011406     24.000000
  0.097786  0.040326 -0.057030     24.000000
  0.111755  0.032261 -0.062733     48.000000
  0.125725  0.024196 -0.068436     48.000000
  0.139694  0.016130 -0.074139     48.000000
  0.153663  0.008065 -0.079842     48.000000
  0.167633  0.000000 -0.085545     48.000000
 -0.167633  0.193566  0.051327     48.000000
 -0.153663  0.185501  0.045624     48.000000
 -0.139694  0.177435  0.039921     48.000000
 -0.125725  0.169370  0.034218     48.000000
 -0.111755  0.161305  0.028515     48.000000
 -0.097786  0.153240  0.022812     48.000000
 -0.083816  0.145174  0.017109     48.000000
 -0.069847  0.137109  0.011406     24.000000
  0.111755  0.048391 -0.068436     24.000000
  0.125725  0.040326 -0.074139     48.000000
  0.139694  0.032261 -0.079842     48.000000
  0.153663  0.024196 -0.085545     48.000000
  0.167633  0.016130 -0.091248     48.000000
 -0.167633  0.209696  0.045624     48.000000
 -0.153663  0.201631  0.039921     48.000000
 -0.139694  0.193566  0.034218     48.000000
 -0.125725  0.185501  0.028515     48.000000
 -0.111755  0.177435  0.022812     48.000000
 -0.097786  0.169370  0.017109     48.000000
 -0.083816  0.161305  0.011406     24.000000
  0.125725  0.056457 -0.079842     24.000000
  0.139694  0.048391 -0.085545     48.000000
  0.153663  0.040326 -0.091248     48.000000
  0.167633  0.032261 -0.096951     48.000000
 -0.167633  0.225827  0.039921     48.000000
 -0.153663  0.217762  0.034218     48.000000
 -0.139694  0.209696  0.028515     48.000000
 -0.125725  0.201631  0.022812     48.000000
 -0.111755  0.193566  0.017109     48.000000
 -0.097786  0.185501  0.011406     24.000000
  0.139694  0.064522 -0.091248     24.000000
  0.153663  0.056457 -0.096951     48.000000
  0.167633  0.048391 -0.102654     48.000000
 -0.167633  0.241957  0.034218     48.000000
 -0.153663  0.233892  0.028515     48.000000
 -0.139694  0.225827  0.022812     48.000000
 -0.125725  0.217762  0.017109     48.000000
 -0.111755  0.209696  0.011406     24.000000
  0.153663  0.072587 -0.102654     24.000000
  0.167633  0.064522 -0.108357     48.000000
 -0.167633  0.258088  0.028515     48.000000
 -0.153663  0.250022  0.022812     48.000000
 -0.139694  0.241957  0.017109     48.000000
 -0.125725  0.233892  0.011406     24.000000
  0.167633  0.080652 -0.114060     24.000000
 -0.167633  0.274218  0.022812     48.000000
 -0.153663  0.266153  0.017109     48.000000
 -0.139694  0.258088  0.011406     24.000000
 -0.167633  0.290349  0.017109     24.000000
 -0.153663  0.282283  0.011406     24.000000
  0.083816  0.016130 -0.022812     24.000000
  0.097786  0.008065 -0.028515     48.000000
  0.111755 -0.000000 -0.034218     48.000000
  0.125725 -0.008065 -0.039921     48.000000
  0.139694 -0.016130 -0.045624     48.000000
  0.153663 -0.024196 -0.051327     48.000000
  0.167633 -0.032261 -0.057030     48.000000
 -0.167633  0.161305  0.079842     48.000000
 -0.153663  0.153240  0.074139     48.000000
  0.097786  0.024196 -0.034218     24.000000
  0.111755  0.016130 -0.039921     48.000000
  0.125725  0.008065 -0.045624     48.000000
  0.139694  0.000000 -0.051327     48.000000
  0.153663 -0.008065 -0.057030     48.000000
  0.167633 -0.016130 -0.062733     48.000000
 -0.167633  0.177435  0.074139     48.000000
 -0.153663  0.169370  0.068436     48.000000
 -0.139694  0.161305  0.062733     48.000000
 -0.125725  0.153240  0.057030     48.000000
 -0.111755  0.145174  0.051327     48.000000
 -0.097786  0.137109  0.045624     48.000000
 -0.083816  0.129044  0.039921     48.000000
 -0.069847  0.120979  0.034218     48.000000
 -0.055878  0.112913  0.028515     48.000000
 -0.041908  0.104848  0.022812     24.000000
  0.111755  0.032261 -0.045624     24.000000
  0.125725  0.024196 -0.051327     48.000000
  0.139694  0.016130 -0.057030     48.000000
  0.153663  0.008065 -0.062733     48.000000
  0.167633  0.000000 -0.068436     48.000000
 -0.167633  0.193566  0.068436     48.000000
 -0.153663  0.185501  0.062733     48.000000
 -0.139694  0.177435  0.057030     48.000000
 -0.125725  0.169370  0.051327     48.000000
 -0.111755  0.161305  0.045624     48.000000
 -0.097786  0.153240  0.039921     48.000000
 -0.083816  0.145174  0.034218     48.000000
 -0.069847  0.137109  0.028515     48.000000
 -0.055878  0.129044  0.022812     24.000000
  0.125725  0.040326 -0.057030     24.000000
  0.139694  0.032261 -0.062733     48.000000
  0.153663  0.024196 -0.068436     48.000000
  0.167633  0.016130 -0.074139     48.000000
 -0.167633  0.209696  0.062733     48.000000
 -0.153663  0.201631  0.057030     48.000000
 -0.139694  0.193566  0.051327     48.000000
 -0.125725  0.185501  0.045624     48.000000
 -0.111755  0.177435  0.039921     48.000000
 -0.097786  0.169370  0.034218     48.000000
 -0.083816  0.161305  0.028515     48.000000
 -0.069847  0.153240  0.022812     24.000000
  0.139694  0.048391 -0.068436     24.000000
  0.153663  0.040326 -0.074139     48.000000
  0.167633  0.032261 -0.079842     48.000000
 -0.167633  0.225827  0.057030     48.000000
 -0.153663  0.217762  0.051327     48.000000
 -0.139694  0.209696  0.045624     48.000000
 -0.125725  0.201631  0.039921     48.000000
 -0.111755  0.193566  0.034218     48.000000
 -0.097786  0.185501  0.028515     48.000000
 -0.083816  0.177435  0.022812     24.000000
  0.153663  0.056457 -0.079842     24.000000
  0.167633  0.048391 -0.085545     48.000000
 -0.167633  0.241957  0.051327     48.000000
 -0.153663  0.233892  0.045624     48.000000
 -0.139694  0.225827  0.039921     48.000000
 -0.125725  0.217762  0.034218     48.000000
 -0.111755  0.209696  0.028515     48.000000
 -0.097786  0.201631  0.022812     24.000000
  0.167633  0.064522 -0.091248     24.000000
 -0.167633  0.258088  0.045624     48.000000
 -0.153663  0.250022  0.039921     48.000000
 -0.139694  0.241957  0.034218     48.000000
 -0.125725  0.233892  0.028515     48.000000
 -0.111755  0.225827  0.022812     24.000000
 -0.167633  0.274218  0.039921     24.000000
 -0.153663  0.266153  0.034218     48.000000
 -0.139694  0.258088  0.028515     48.000000
 -0.125725  0.250022  0.022812     24.000000
 -0.153663  0.282283  0.028515     24.000000
 -0.139694  0.274218  0.022812     24.000000
  0.125725  0.024196 -0.034218     24.000000
  0.139694  0.016130 -0.039921     48.000000
  0.153663  0.008065 -0.045624     48.000000
  0.167633  0.000000 -0.051327     48.000000
 -0.167633  0.193566  0.085545     48.000000
 -0.153663  0.185501  0.079842     48.000000
 -0.139694  0.177435  0.074139     48.000000
  0.139694  0.032261 -0.045624     24.000000
  0.153663  0.024196 -0.051327     48.000000
  0.167633  0.016130 -0.057030     48.000000
 -0.167633  0.209696  0.079842     48.000000
 -0.153663  0.201631  0.074139     48.000000
 -0.139694  0.193566  0.068436     48.000000
 -0.125725  0.185501  0.062733     48.000000
 -0.111755  0.177435  0.057030     48.000000
 -0.097786  0.169370  0.051327     48.000000
 -0.083816  0.161305  0.045624     48.000000
 -0.069847  0.153240  0.039921     48.000000
 -0.055878  0.145174  0.034218     24.000000
  0.153663  0.040326 -0.057030     24.000000
  0.167633  0.032261 -0.062733     48.000000
 -0.167633  0.225827  0.074139     48.000000
 -0.153663  0.217762  0.068436     48.000000
 -0.139694  0.209696  0.062733     48.000000
 -0.125725  0.201631  0.057030     48.000000
 -0.111755  0.193566  0.051327     48.000000
 -0.097786  0.185501  0.045624     48.000000
 -0.083816  0.177435  0.039921     48.000000
 -0.069847  0.169370  0.034218     24.000000
  0.167633  0.048391 -0.068436     24.000000
 -0.167633  0.241957  0.068436     48.000000
 -0.153663  0.233892  0.062733     48.000000
 -0.139694  0.225827  0.057030     48.000000
 -0.125725  0.217762  0.051327     48.000000
 -0.111755  0.209696  0.045624     48.000000
 -0.097786  0.201631  0.039921     48.000000
 -0.083816  0.193566  0.034218     24.000000
 -0.167633  0.258088  0.062733     24.000000
 -0.153663  0.250022  0.057030     48.000000
 -0.139694  0.241957  0.051327     48.000000
 -0.125725  0.233892  0.045624     48.000000
 -0.111755  0.225827  0.039921     48.000000
 -0.097786  0.217762  0.034218     24.000000
 -0.153663  0.266153  0.051327     24.000000
 -0.139694  0.258088  0.045624     48.000000
 -0.125725  0.250022  0.039921     48.000000
 -0.111755  0.241957  0.034218     24.000000
 -0.139694  0.274218  0.039921     24.000000
 -0.125725  0.266153  0.034218     24.000000
  0.167633  0.032261 -0.045624     24.000000
 -0.167633  0.225827  0.091248     48.000000
 -0.153663  0.217762  0.085545     48.000000
 -0.139694  0.209696  0.079842     48.000000
 -0.125725  0.201631  0.074139     48.000000
 -0.167633  0.241957  0.085545     24.000000
 -0.153663  0.233892  0.079842     48.000000
 -0.139694  0.225827  0.074139     48.000000
 -0.125725  0.217762  0.068436     48.000000
 -0.111755  0.209696  0.062733     48.000000
 -0.097786  0.201631  0.057030     48.000000
 -0.083816  0.193566  0.051327     48.000000
 -0.069847  0.185501  0.045624     24.000000
 -0.153663  0.250022  0.074139     24.000000
 -0.139694  0.241957  0.068436     48.000000
 -0.125725  0.233892  0.062733     48.000000
 -0.111755  0.225827  0.057030     48.000000
 -0.097786  0.217762  0.051327     48.000000
 -0.083816  0.209696  0.045624     24.000000
 -0.139694  0.258088  0.062733     24.000000
 -0.125725  0.250022  0.057030     48.000000
 -0.111755  0.241957  0.051327     48.000000
 -0.097786  0.233892  0.045624     24.000000
 -0.125725  0.266153  0.051327     24.000000
 -0.111755  0.258088  0.045624     24.000000
 -0.139694  0.241957  0.085545     24.000000
 -0.125725  0.233892  0.079842     48.000000
 -0.111755  0.225827  0.074139     48.000000
 -0.125725  0.250022  0.074139     24.000000
 -0.111755  0.241957  0.068436     48.000000
 -0.097786  0.233892  0.062733     48.000000
 -0.083816  0.225827  0.057030     24.000000
 -0.111755  0.258088  0.062733     24.000000
 -0.097786  0.250022  0.057030     24.000000
 -0.097786  0.250022  0.074139     24.000000
 
 
 Subroutine IBZKPT_HF returns following result:
 ==============================================
 
 Found  15625 k-points in 1st BZ
 the following  15625 k-points will be used (e.g. in the exchange kernel)
 Following reciprocal coordinates:   # in IRBZ
  0.000000  0.000000  0.000000    0.00006400   1 t-inv F
  0.040000  0.000000  0.000000    0.00006400   2 t-inv F
  0.080000  0.000000  0.000000    0.00006400   3 t-inv F
  0.120000  0.000000  0.000000    0.00006400   4 t-inv F
  0.160000  0.000000  0.000000    0.00006400   5 t-inv F
  0.200000  0.000000  0.000000    0.00006400   6 t-inv F
  0.240000  0.000000  0.000000    0.00006400   7 t-inv F
  0.280000  0.000000  0.000000    0.00006400   8 t-inv F
  0.320000  0.000000  0.000000    0.00006400   9 t-inv F
  0.360000  0.000000  0.000000    0.00006400  10 t-inv F
  0.400000  0.000000  0.000000    0.00006400  11 t-inv F
  0.440000  0.000000  0.000000    0.00006400  12 t-inv F
  0.480000  0.000000  0.000000    0.00006400  13 t-inv F
  0.040000  0.040000  0.000000    0.00006400  14 t-inv F
  0.080000  0.040000  0.000000    0.00006400  15 t-inv F
  0.120000  0.040000  0.000000    0.00006400  16 t-inv F
  0.160000  0.040000  0.000000    0.00006400  17 t-inv F
  0.200000  0.040000  0.000000    0.00006400  18 t-inv F
  0.240000  0.040000  0.000000    0.00006400  19 t-inv F
  0.280000  0.040000  0.000000    0.00006400  20 t-inv F
  0.320000  0.040000  0.000000    0.00006400  21 t-inv F
  0.360000  0.040000  0.000000    0.00006400  22 t-inv F
  0.400000  0.040000  0.000000    0.00006400  23 t-inv F
  0.440000  0.040000  0.000000    0.00006400  24 t-inv F
  0.480000  0.040000  0.000000    0.00006400  25 t-inv F
 -0.480000  0.040000  0.000000    0.00006400  26 t-inv F
 -0.440000  0.040000  0.000000    0.00006400  27 t-inv F
 -0.400000  0.040000  0.000000    0.00006400  28 t-inv F
 -0.360000  0.040000  0.000000    0.00006400  29 t-inv F
 -0.320000  0.040000  0.000000    0.00006400  30 t-inv F
 -0.280000  0.040000  0.000000    0.00006400  31 t-inv F
 -0.240000  0.040000  0.000000    0.00006400  32 t-inv F
 -0.200000  0.040000  0.000000    0.00006400  33 t-inv F
 -0.160000  0.040000  0.000000    0.00006400  34 t-inv F
 -0.120000  0.040000  0.000000    0.00006400  35 t-inv F
 -0.080000  0.040000  0.000000    0.00006400  36 t-inv F
 -0.040000  0.040000  0.000000    0.00006400  37 t-inv F
  0.080000  0.080000  0.000000    0.00006400  38 t-inv F
  0.120000  0.080000  0.000000    0.00006400  39 t-inv F
  0.160000  0.080000  0.000000    0.00006400  40 t-inv F
  0.200000  0.080000  0.000000    0.00006400  41 t-inv F
  0.240000  0.080000  0.000000    0.00006400  42 t-inv F
  0.280000  0.080000  0.000000    0.00006400  43 t-inv F
  0.320000  0.080000  0.000000    0.00006400  44 t-inv F
  0.360000  0.080000  0.000000    0.00006400  45 t-inv F
  0.400000  0.080000  0.000000    0.00006400  46 t-inv F
  0.440000  0.080000  0.000000    0.00006400  47 t-inv F
  0.480000  0.080000  0.000000    0.00006400  48 t-inv F
 -0.480000  0.080000  0.000000    0.00006400  49 t-inv F
 -0.440000  0.080000  0.000000    0.00006400  50 t-inv F
 -0.400000  0.080000  0.000000    0.00006400  51 t-inv F
 -0.360000  0.080000  0.000000    0.00006400  52 t-inv F
 -0.320000  0.080000  0.000000    0.00006400  53 t-inv F
 -0.280000  0.080000  0.000000    0.00006400  54 t-inv F
 -0.240000  0.080000  0.000000    0.00006400  55 t-inv F
 -0.200000  0.080000  0.000000    0.00006400  56 t-inv F
 -0.160000  0.080000  0.000000    0.00006400  57 t-inv F
 -0.120000  0.080000  0.000000    0.00006400  58 t-inv F
 -0.080000  0.080000  0.000000    0.00006400  59 t-inv F
  0.120000  0.120000  0.000000    0.00006400  60 t-inv F
  0.160000  0.120000  0.000000    0.00006400  61 t-inv F
  0.200000  0.120000  0.000000    0.00006400  62 t-inv F
  0.240000  0.120000  0.000000    0.00006400  63 t-inv F
  0.280000  0.120000  0.000000    0.00006400  64 t-inv F
  0.320000  0.120000  0.000000    0.00006400  65 t-inv F
  0.360000  0.120000  0.000000    0.00006400  66 t-inv F
  0.400000  0.120000  0.000000    0.00006400  67 t-inv F
  0.440000  0.120000  0.000000    0.00006400  68 t-inv F
  0.480000  0.120000  0.000000    0.00006400  69 t-inv F
 -0.480000  0.120000  0.000000    0.00006400  70 t-inv F
 -0.440000  0.120000  0.000000    0.00006400  71 t-inv F
 -0.400000  0.120000  0.000000    0.00006400  72 t-inv F
 -0.360000  0.120000  0.000000    0.00006400  73 t-inv F
 -0.320000  0.120000  0.000000    0.00006400  74 t-inv F
 -0.280000  0.120000  0.000000    0.00006400  75 t-inv F
 -0.240000  0.120000  0.000000    0.00006400  76 t-inv F
 -0.200000  0.120000  0.000000    0.00006400  77 t-inv F
 -0.160000  0.120000  0.000000    0.00006400  78 t-inv F
 -0.120000  0.120000  0.000000    0.00006400  79 t-inv F
  0.160000  0.160000  0.000000    0.00006400  80 t-inv F
  0.200000  0.160000  0.000000    0.00006400  81 t-inv F
  0.240000  0.160000  0.000000    0.00006400  82 t-inv F
  0.280000  0.160000  0.000000    0.00006400  83 t-inv F
  0.320000  0.160000  0.000000    0.00006400  84 t-inv F
  0.360000  0.160000  0.000000    0.00006400  85 t-inv F
  0.400000  0.160000  0.000000    0.00006400  86 t-inv F
  0.440000  0.160000  0.000000    0.00006400  87 t-inv F
  0.480000  0.160000  0.000000    0.00006400  88 t-inv F
 -0.480000  0.160000  0.000000    0.00006400  89 t-inv F
 -0.440000  0.160000  0.000000    0.00006400  90 t-inv F
 -0.400000  0.160000  0.000000    0.00006400  91 t-inv F
 -0.360000  0.160000  0.000000    0.00006400  92 t-inv F
 -0.320000  0.160000  0.000000    0.00006400  93 t-inv F
 -0.280000  0.160000  0.000000    0.00006400  94 t-inv F
 -0.240000  0.160000  0.000000    0.00006400  95 t-inv F
 -0.200000  0.160000  0.000000    0.00006400  96 t-inv F
 -0.160000  0.160000  0.000000    0.00006400  97 t-inv F
  0.200000  0.200000  0.000000    0.00006400  98 t-inv F
  0.240000  0.200000  0.000000    0.00006400  99 t-inv F
  0.280000  0.200000  0.000000    0.00006400 100 t-inv F
  0.320000  0.200000  0.000000    0.00006400 101 t-inv F
  0.360000  0.200000  0.000000    0.00006400 102 t-inv F
  0.400000  0.200000  0.000000    0.00006400 103 t-inv F
  0.440000  0.200000  0.000000    0.00006400 104 t-inv F
  0.480000  0.200000  0.000000    0.00006400 105 t-inv F
 -0.480000  0.200000  0.000000    0.00006400 106 t-inv F
 -0.440000  0.200000  0.000000    0.00006400 107 t-inv F
 -0.400000  0.200000  0.000000    0.00006400 108 t-inv F
 -0.360000  0.200000  0.000000    0.00006400 109 t-inv F
 -0.320000  0.200000  0.000000    0.00006400 110 t-inv F
 -0.280000  0.200000  0.000000    0.00006400 111 t-inv F
 -0.240000  0.200000  0.000000    0.00006400 112 t-inv F
 -0.200000  0.200000  0.000000    0.00006400 113 t-inv F
  0.240000  0.240000  0.000000    0.00006400 114 t-inv F
  0.280000  0.240000  0.000000    0.00006400 115 t-inv F
  0.320000  0.240000  0.000000    0.00006400 116 t-inv F
  0.360000  0.240000  0.000000    0.00006400 117 t-inv F
  0.400000  0.240000  0.000000    0.00006400 118 t-inv F
  0.440000  0.240000  0.000000    0.00006400 119 t-inv F
  0.480000  0.240000  0.000000    0.00006400 120 t-inv F
 -0.480000  0.240000  0.000000    0.00006400 121 t-inv F
 -0.440000  0.240000  0.000000    0.00006400 122 t-inv F
 -0.400000  0.240000  0.000000    0.00006400 123 t-inv F
 -0.360000  0.240000  0.000000    0.00006400 124 t-inv F
 -0.320000  0.240000  0.000000    0.00006400 125 t-inv F
 -0.280000  0.240000  0.000000    0.00006400 126 t-inv F
 -0.240000  0.240000  0.000000    0.00006400 127 t-inv F
  0.280000  0.280000  0.000000    0.00006400 128 t-inv F
  0.320000  0.280000  0.000000    0.00006400 129 t-inv F
  0.360000  0.280000  0.000000    0.00006400 130 t-inv F
  0.400000  0.280000  0.000000    0.00006400 131 t-inv F
  0.440000  0.280000  0.000000    0.00006400 132 t-inv F
  0.480000  0.280000  0.000000    0.00006400 133 t-inv F
 -0.480000  0.280000  0.000000    0.00006400 134 t-inv F
 -0.440000  0.280000  0.000000    0.00006400 135 t-inv F
 -0.400000  0.280000  0.000000    0.00006400 136 t-inv F
 -0.360000  0.280000  0.000000    0.00006400 137 t-inv F
 -0.320000  0.280000  0.000000    0.00006400 138 t-inv F
 -0.280000  0.280000  0.000000    0.00006400 139 t-inv F
  0.320000  0.320000  0.000000    0.00006400 140 t-inv F
  0.360000  0.320000  0.000000    0.00006400 141 t-inv F
  0.400000  0.320000  0.000000    0.00006400 142 t-inv F
  0.440000  0.320000  0.000000    0.00006400 143 t-inv F
  0.480000  0.320000  0.000000    0.00006400 144 t-inv F
 -0.480000  0.320000  0.000000    0.00006400 145 t-inv F
 -0.440000  0.320000  0.000000    0.00006400 146 t-inv F
 -0.400000  0.320000  0.000000    0.00006400 147 t-inv F
 -0.360000  0.320000  0.000000    0.00006400 148 t-inv F
 -0.320000  0.320000  0.000000    0.00006400 149 t-inv F
  0.360000  0.360000  0.000000    0.00006400 150 t-inv F
  0.400000  0.360000  0.000000    0.00006400 151 t-inv F
  0.440000  0.360000  0.000000    0.00006400 152 t-inv F
  0.480000  0.360000  0.000000    0.00006400 153 t-inv F
 -0.480000  0.360000  0.000000    0.00006400 154 t-inv F
 -0.440000  0.360000  0.000000    0.00006400 155 t-inv F
 -0.400000  0.360000  0.000000    0.00006400 156 t-inv F
 -0.360000  0.360000  0.000000    0.00006400 157 t-inv F
  0.400000  0.400000  0.000000    0.00006400 158 t-inv F
  0.440000  0.400000  0.000000    0.00006400 159 t-inv F
  0.480000  0.400000  0.000000    0.00006400 160 t-inv F
 -0.480000  0.400000  0.000000    0.00006400 161 t-inv F
 -0.440000  0.400000  0.000000    0.00006400 162 t-inv F
 -0.400000  0.400000  0.000000    0.00006400 163 t-inv F
  0.440000  0.440000  0.000000    0.00006400 164 t-inv F
  0.480000  0.440000  0.000000    0.00006400 165 t-inv F
 -0.480000  0.440000  0.000000    0.00006400 166 t-inv F
 -0.440000  0.440000  0.000000    0.00006400 167 t-inv F
  0.480000  0.480000  0.000000    0.00006400 168 t-inv F
 -0.480000  0.480000  0.000000    0.00006400 169 t-inv F
  0.120000  0.080000  0.040000    0.00006400 170 t-inv F
  0.160000  0.080000  0.040000    0.00006400 171 t-inv F
  0.200000  0.080000  0.040000    0.00006400 172 t-inv F
  0.240000  0.080000  0.040000    0.00006400 173 t-inv F
  0.280000  0.080000  0.040000    0.00006400 174 t-inv F
  0.320000  0.080000  0.040000    0.00006400 175 t-inv F
  0.360000  0.080000  0.040000    0.00006400 176 t-inv F
  0.400000  0.080000  0.040000    0.00006400 177 t-inv F
  0.440000  0.080000  0.040000    0.00006400 178 t-inv F
  0.480000  0.080000  0.040000    0.00006400 179 t-inv F
 -0.480000  0.080000  0.040000    0.00006400 180 t-inv F
  0.160000  0.120000  0.040000    0.00006400 181 t-inv F
  0.200000  0.120000  0.040000    0.00006400 182 t-inv F
  0.240000  0.120000  0.040000    0.00006400 183 t-inv F
  0.280000  0.120000  0.040000    0.00006400 184 t-inv F
  0.320000  0.120000  0.040000    0.00006400 185 t-inv F
  0.360000  0.120000  0.040000    0.00006400 186 t-inv F
  0.400000  0.120000  0.040000    0.00006400 187 t-inv F
  0.440000  0.120000  0.040000    0.00006400 188 t-inv F
  0.480000  0.120000  0.040000    0.00006400 189 t-inv F
 -0.480000  0.120000  0.040000    0.00006400 190 t-inv F
 -0.440000  0.120000  0.040000    0.00006400 191 t-inv F
 -0.400000  0.120000  0.040000    0.00006400 192 t-inv F
 -0.360000  0.120000  0.040000    0.00006400 193 t-inv F
 -0.320000  0.120000  0.040000    0.00006400 194 t-inv F
 -0.280000  0.120000  0.040000    0.00006400 195 t-inv F
 -0.240000  0.120000  0.040000    0.00006400 196 t-inv F
 -0.200000  0.120000  0.040000    0.00006400 197 t-inv F
 -0.160000  0.120000  0.040000    0.00006400 198 t-inv F
 -0.120000  0.120000  0.040000    0.00006400 199 t-inv F
 -0.080000  0.120000  0.040000    0.00006400 200 t-inv F
  0.200000  0.160000  0.040000    0.00006400 201 t-inv F
  0.240000  0.160000  0.040000    0.00006400 202 t-inv F
  0.280000  0.160000  0.040000    0.00006400 203 t-inv F
  0.320000  0.160000  0.040000    0.00006400 204 t-inv F
  0.360000  0.160000  0.040000    0.00006400 205 t-inv F
  0.400000  0.160000  0.040000    0.00006400 206 t-inv F
  0.440000  0.160000  0.040000    0.00006400 207 t-inv F
  0.480000  0.160000  0.040000    0.00006400 208 t-inv F
 -0.480000  0.160000  0.040000    0.00006400 209 t-inv F
 -0.440000  0.160000  0.040000    0.00006400 210 t-inv F
 -0.400000  0.160000  0.040000    0.00006400 211 t-inv F
 -0.360000  0.160000  0.040000    0.00006400 212 t-inv F
 -0.320000  0.160000  0.040000    0.00006400 213 t-inv F
 -0.280000  0.160000  0.040000    0.00006400 214 t-inv F
 -0.240000  0.160000  0.040000    0.00006400 215 t-inv F
 -0.200000  0.160000  0.040000    0.00006400 216 t-inv F
 -0.160000  0.160000  0.040000    0.00006400 217 t-inv F
 -0.120000  0.160000  0.040000    0.00006400 218 t-inv F
  0.240000  0.200000  0.040000    0.00006400 219 t-inv F
  0.280000  0.200000  0.040000    0.00006400 220 t-inv F
  0.320000  0.200000  0.040000    0.00006400 221 t-inv F
  0.360000  0.200000  0.040000    0.00006400 222 t-inv F
  0.400000  0.200000  0.040000    0.00006400 223 t-inv F
  0.440000  0.200000  0.040000    0.00006400 224 t-inv F
  0.480000  0.200000  0.040000    0.00006400 225 t-inv F
 -0.480000  0.200000  0.040000    0.00006400 226 t-inv F
 -0.440000  0.200000  0.040000    0.00006400 227 t-inv F
 -0.400000  0.200000  0.040000    0.00006400 228 t-inv F
 -0.360000  0.200000  0.040000    0.00006400 229 t-inv F
 -0.320000  0.200000  0.040000    0.00006400 230 t-inv F
 -0.280000  0.200000  0.040000    0.00006400 231 t-inv F
 -0.240000  0.200000  0.040000    0.00006400 232 t-inv F
 -0.200000  0.200000  0.040000    0.00006400 233 t-inv F
 -0.160000  0.200000  0.040000    0.00006400 234 t-inv F
  0.280000  0.240000  0.040000    0.00006400 235 t-inv F
  0.320000  0.240000  0.040000    0.00006400 236 t-inv F
  0.360000  0.240000  0.040000    0.00006400 237 t-inv F
  0.400000  0.240000  0.040000    0.00006400 238 t-inv F
  0.440000  0.240000  0.040000    0.00006400 239 t-inv F
  0.480000  0.240000  0.040000    0.00006400 240 t-inv F
 -0.480000  0.240000  0.040000    0.00006400 241 t-inv F
 -0.440000  0.240000  0.040000    0.00006400 242 t-inv F
 -0.400000  0.240000  0.040000    0.00006400 243 t-inv F
 -0.360000  0.240000  0.040000    0.00006400 244 t-inv F
 -0.320000  0.240000  0.040000    0.00006400 245 t-inv F
 -0.280000  0.240000  0.040000    0.00006400 246 t-inv F
 -0.240000  0.240000  0.040000    0.00006400 247 t-inv F
 -0.200000  0.240000  0.040000    0.00006400 248 t-inv F
  0.320000  0.280000  0.040000    0.00006400 249 t-inv F
  0.360000  0.280000  0.040000    0.00006400 250 t-inv F
  0.400000  0.280000  0.040000    0.00006400 251 t-inv F
  0.440000  0.280000  0.040000    0.00006400 252 t-inv F
  0.480000  0.280000  0.040000    0.00006400 253 t-inv F
 -0.480000  0.280000  0.040000    0.00006400 254 t-inv F
 -0.440000  0.280000  0.040000    0.00006400 255 t-inv F
 -0.400000  0.280000  0.040000    0.00006400 256 t-inv F
 -0.360000  0.280000  0.040000    0.00006400 257 t-inv F
 -0.320000  0.280000  0.040000    0.00006400 258 t-inv F
 -0.280000  0.280000  0.040000    0.00006400 259 t-inv F
 -0.240000  0.280000  0.040000    0.00006400 260 t-inv F
  0.360000  0.320000  0.040000    0.00006400 261 t-inv F
  0.400000  0.320000  0.040000    0.00006400 262 t-inv F
  0.440000  0.320000  0.040000    0.00006400 263 t-inv F
  0.480000  0.320000  0.040000    0.00006400 264 t-inv F
 -0.480000  0.320000  0.040000    0.00006400 265 t-inv F
 -0.440000  0.320000  0.040000    0.00006400 266 t-inv F
 -0.400000  0.320000  0.040000    0.00006400 267 t-inv F
 -0.360000  0.320000  0.040000    0.00006400 268 t-inv F
 -0.320000  0.320000  0.040000    0.00006400 269 t-inv F
 -0.280000  0.320000  0.040000    0.00006400 270 t-inv F
  0.400000  0.360000  0.040000    0.00006400 271 t-inv F
  0.440000  0.360000  0.040000    0.00006400 272 t-inv F
  0.480000  0.360000  0.040000    0.00006400 273 t-inv F
 -0.480000  0.360000  0.040000    0.00006400 274 t-inv F
 -0.440000  0.360000  0.040000    0.00006400 275 t-inv F
 -0.400000  0.360000  0.040000    0.00006400 276 t-inv F
 -0.360000  0.360000  0.040000    0.00006400 277 t-inv F
 -0.320000  0.360000  0.040000    0.00006400 278 t-inv F
  0.440000  0.400000  0.040000    0.00006400 279 t-inv F
  0.480000  0.400000  0.040000    0.00006400 280 t-inv F
 -0.480000  0.400000  0.040000    0.00006400 281 t-inv F
 -0.440000  0.400000  0.040000    0.00006400 282 t-inv F
 -0.400000  0.400000  0.040000    0.00006400 283 t-inv F
 -0.360000  0.400000  0.040000    0.00006400 284 t-inv F
  0.480000  0.440000  0.040000    0.00006400 285 t-inv F
 -0.480000  0.440000  0.040000    0.00006400 286 t-inv F
 -0.440000  0.440000  0.040000    0.00006400 287 t-inv F
 -0.400000  0.440000  0.040000    0.00006400 288 t-inv F
 -0.480000  0.480000  0.040000    0.00006400 289 t-inv F
 -0.440000  0.480000  0.040000    0.00006400 290 t-inv F
  0.240000  0.160000  0.080000    0.00006400 291 t-inv F
  0.280000  0.160000  0.080000    0.00006400 292 t-inv F
  0.320000  0.160000  0.080000    0.00006400 293 t-inv F
  0.360000  0.160000  0.080000    0.00006400 294 t-inv F
  0.400000  0.160000  0.080000    0.00006400 295 t-inv F
  0.440000  0.160000  0.080000    0.00006400 296 t-inv F
  0.480000  0.160000  0.080000    0.00006400 297 t-inv F
 -0.480000  0.160000  0.080000    0.00006400 298 t-inv F
 -0.440000  0.160000  0.080000    0.00006400 299 t-inv F
  0.280000  0.200000  0.080000    0.00006400 300 t-inv F
  0.320000  0.200000  0.080000    0.00006400 301 t-inv F
  0.360000  0.200000  0.080000    0.00006400 302 t-inv F
  0.400000  0.200000  0.080000    0.00006400 303 t-inv F
  0.440000  0.200000  0.080000    0.00006400 304 t-inv F
  0.480000  0.200000  0.080000    0.00006400 305 t-inv F
 -0.480000  0.200000  0.080000    0.00006400 306 t-inv F
 -0.440000  0.200000  0.080000    0.00006400 307 t-inv F
 -0.400000  0.200000  0.080000    0.00006400 308 t-inv F
 -0.360000  0.200000  0.080000    0.00006400 309 t-inv F
 -0.320000  0.200000  0.080000    0.00006400 310 t-inv F
 -0.280000  0.200000  0.080000    0.00006400 311 t-inv F
 -0.240000  0.200000  0.080000    0.00006400 312 t-inv F
 -0.200000  0.200000  0.080000    0.00006400 313 t-inv F
 -0.160000  0.200000  0.080000    0.00006400 314 t-inv F
 -0.120000  0.200000  0.080000    0.00006400 315 t-inv F
  0.320000  0.240000  0.080000    0.00006400 316 t-inv F
  0.360000  0.240000  0.080000    0.00006400 317 t-inv F
  0.400000  0.240000  0.080000    0.00006400 318 t-inv F
  0.440000  0.240000  0.080000    0.00006400 319 t-inv F
  0.480000  0.240000  0.080000    0.00006400 320 t-inv F
 -0.480000  0.240000  0.080000    0.00006400 321 t-inv F
 -0.440000  0.240000  0.080000    0.00006400 322 t-inv F
 -0.400000  0.240000  0.080000    0.00006400 323 t-inv F
 -0.360000  0.240000  0.080000    0.00006400 324 t-inv F
 -0.320000  0.240000  0.080000    0.00006400 325 t-inv F
 -0.280000  0.240000  0.080000    0.00006400 326 t-inv F
 -0.240000  0.240000  0.080000    0.00006400 327 t-inv F
 -0.200000  0.240000  0.080000    0.00006400 328 t-inv F
 -0.160000  0.240000  0.080000    0.00006400 329 t-inv F
  0.360000  0.280000  0.080000    0.00006400 330 t-inv F
  0.400000  0.280000  0.080000    0.00006400 331 t-inv F
  0.440000  0.280000  0.080000    0.00006400 332 t-inv F
  0.480000  0.280000  0.080000    0.00006400 333 t-inv F
 -0.480000  0.280000  0.080000    0.00006400 334 t-inv F
 -0.440000  0.280000  0.080000    0.00006400 335 t-inv F
 -0.400000  0.280000  0.080000    0.00006400 336 t-inv F
 -0.360000  0.280000  0.080000    0.00006400 337 t-inv F
 -0.320000  0.280000  0.080000    0.00006400 338 t-inv F
 -0.280000  0.280000  0.080000    0.00006400 339 t-inv F
 -0.240000  0.280000  0.080000    0.00006400 340 t-inv F
 -0.200000  0.280000  0.080000    0.00006400 341 t-inv F
  0.400000  0.320000  0.080000    0.00006400 342 t-inv F
  0.440000  0.320000  0.080000    0.00006400 343 t-inv F
  0.480000  0.320000  0.080000    0.00006400 344 t-inv F
 -0.480000  0.320000  0.080000    0.00006400 345 t-inv F
 -0.440000  0.320000  0.080000    0.00006400 346 t-inv F
 -0.400000  0.320000  0.080000    0.00006400 347 t-inv F
 -0.360000  0.320000  0.080000    0.00006400 348 t-inv F
 -0.320000  0.320000  0.080000    0.00006400 349 t-inv F
 -0.280000  0.320000  0.080000    0.00006400 350 t-inv F
 -0.240000  0.320000  0.080000    0.00006400 351 t-inv F
  0.440000  0.360000  0.080000    0.00006400 352 t-inv F
  0.480000  0.360000  0.080000    0.00006400 353 t-inv F
 -0.480000  0.360000  0.080000    0.00006400 354 t-inv F
 -0.440000  0.360000  0.080000    0.00006400 355 t-inv F
 -0.400000  0.360000  0.080000    0.00006400 356 t-inv F
 -0.360000  0.360000  0.080000    0.00006400 357 t-inv F
 -0.320000  0.360000  0.080000    0.00006400 358 t-inv F
 -0.280000  0.360000  0.080000    0.00006400 359 t-inv F
  0.480000  0.400000  0.080000    0.00006400 360 t-inv F
 -0.480000  0.400000  0.080000    0.00006400 361 t-inv F
 -0.440000  0.400000  0.080000    0.00006400 362 t-inv F
 -0.400000  0.400000  0.080000    0.00006400 363 t-inv F
 -0.360000  0.400000  0.080000    0.00006400 364 t-inv F
 -0.320000  0.400000  0.080000    0.00006400 365 t-inv F
 -0.480000  0.440000  0.080000    0.00006400 366 t-inv F
 -0.440000  0.440000  0.080000    0.00006400 367 t-inv F
 -0.400000  0.440000  0.080000    0.00006400 368 t-inv F
 -0.360000  0.440000  0.080000    0.00006400 369 t-inv F
 -0.440000  0.480000  0.080000    0.00006400 370 t-inv F
 -0.400000  0.480000  0.080000    0.00006400 371 t-inv F
  0.360000  0.240000  0.120000    0.00006400 372 t-inv F
  0.400000  0.240000  0.120000    0.00006400 373 t-inv F
  0.440000  0.240000  0.120000    0.00006400 374 t-inv F
  0.480000  0.240000  0.120000    0.00006400 375 t-inv F
 -0.480000  0.240000  0.120000    0.00006400 376 t-inv F
 -0.440000  0.240000  0.120000    0.00006400 377 t-inv F
 -0.400000  0.240000  0.120000    0.00006400 378 t-inv F
  0.400000  0.280000  0.120000    0.00006400 379 t-inv F
  0.440000  0.280000  0.120000    0.00006400 380 t-inv F
  0.480000  0.280000  0.120000    0.00006400 381 t-inv F
 -0.480000  0.280000  0.120000    0.00006400 382 t-inv F
 -0.440000  0.280000  0.120000    0.00006400 383 t-inv F
 -0.400000  0.280000  0.120000    0.00006400 384 t-inv F
 -0.360000  0.280000  0.120000    0.00006400 385 t-inv F
 -0.320000  0.280000  0.120000    0.00006400 386 t-inv F
 -0.280000  0.280000  0.120000    0.00006400 387 t-inv F
 -0.240000  0.280000  0.120000    0.00006400 388 t-inv F
 -0.200000  0.280000  0.120000    0.00006400 389 t-inv F
 -0.160000  0.280000  0.120000    0.00006400 390 t-inv F
  0.440000  0.320000  0.120000    0.00006400 391 t-inv F
  0.480000  0.320000  0.120000    0.00006400 392 t-inv F
 -0.480000  0.320000  0.120000    0.00006400 393 t-inv F
 -0.440000  0.320000  0.120000    0.00006400 394 t-inv F
 -0.400000  0.320000  0.120000    0.00006400 395 t-inv F
 -0.360000  0.320000  0.120000    0.00006400 396 t-inv F
 -0.320000  0.320000  0.120000    0.00006400 397 t-inv F
 -0.280000  0.320000  0.120000    0.00006400 398 t-inv F
 -0.240000  0.320000  0.120000    0.00006400 399 t-inv F
 -0.200000  0.320000  0.120000    0.00006400 400 t-inv F
  0.480000  0.360000  0.120000    0.00006400 401 t-inv F
 -0.480000  0.360000  0.120000    0.00006400 402 t-inv F
 -0.440000  0.360000  0.120000    0.00006400 403 t-inv F
 -0.400000  0.360000  0.120000    0.00006400 404 t-inv F
 -0.360000  0.360000  0.120000    0.00006400 405 t-inv F
 -0.320000  0.360000  0.120000    0.00006400 406 t-inv F
 -0.280000  0.360000  0.120000    0.00006400 407 t-inv F
 -0.240000  0.360000  0.120000    0.00006400 408 t-inv F
 -0.480000  0.400000  0.120000    0.00006400 409 t-inv F
 -0.440000  0.400000  0.120000    0.00006400 410 t-inv F
 -0.400000  0.400000  0.120000    0.00006400 411 t-inv F
 -0.360000  0.400000  0.120000    0.00006400 412 t-inv F
 -0.320000  0.400000  0.120000    0.00006400 413 t-inv F
 -0.280000  0.400000  0.120000    0.00006400 414 t-inv F
 -0.440000  0.440000  0.120000    0.00006400 415 t-inv F
 -0.400000  0.440000  0.120000    0.00006400 416 t-inv F
 -0.360000  0.440000  0.120000    0.00006400 417 t-inv F
 -0.320000  0.440000  0.120000    0.00006400 418 t-inv F
 -0.400000  0.480000  0.120000    0.00006400 419 t-inv F
 -0.360000  0.480000  0.120000    0.00006400 420 t-inv F
  0.480000  0.320000  0.160000    0.00006400 421 t-inv F
 -0.480000  0.320000  0.160000    0.00006400 422 t-inv F
 -0.440000  0.320000  0.160000    0.00006400 423 t-inv F
 -0.400000  0.320000  0.160000    0.00006400 424 t-inv F
 -0.360000  0.320000  0.160000    0.00006400 425 t-inv F
 -0.480000  0.360000  0.160000    0.00006400 426 t-inv F
 -0.440000  0.360000  0.160000    0.00006400 427 t-inv F
 -0.400000  0.360000  0.160000    0.00006400 428 t-inv F
 -0.360000  0.360000  0.160000    0.00006400 429 t-inv F
 -0.320000  0.360000  0.160000    0.00006400 430 t-inv F
 -0.280000  0.360000  0.160000    0.00006400 431 t-inv F
 -0.240000  0.360000  0.160000    0.00006400 432 t-inv F
 -0.200000  0.360000  0.160000    0.00006400 433 t-inv F
 -0.440000  0.400000  0.160000    0.00006400 434 t-inv F
 -0.400000  0.400000  0.160000    0.00006400 435 t-inv F
 -0.360000  0.400000  0.160000    0.00006400 436 t-inv F
 -0.320000  0.400000  0.160000    0.00006400 437 t-inv F
 -0.280000  0.400000  0.160000    0.00006400 438 t-inv F
 -0.240000  0.400000  0.160000    0.00006400 439 t-inv F
 -0.400000  0.440000  0.160000    0.00006400 440 t-inv F
 -0.360000  0.440000  0.160000    0.00006400 441 t-inv F
 -0.320000  0.440000  0.160000    0.00006400 442 t-inv F
 -0.280000  0.440000  0.160000    0.00006400 443 t-inv F
 -0.360000  0.480000  0.160000    0.00006400 444 t-inv F
 -0.320000  0.480000  0.160000    0.00006400 445 t-inv F
 -0.400000  0.400000  0.200000    0.00006400 446 t-inv F
 -0.360000  0.400000  0.200000    0.00006400 447 t-inv F
 -0.320000  0.400000  0.200000    0.00006400 448 t-inv F
 -0.360000  0.440000  0.200000    0.00006400 449 t-inv F
 -0.320000  0.440000  0.200000    0.00006400 450 t-inv F
 -0.280000  0.440000  0.200000    0.00006400 451 t-inv F
 -0.240000  0.440000  0.200000    0.00006400 452 t-inv F
 -0.320000  0.480000  0.200000    0.00006400 453 t-inv F
 -0.280000  0.480000  0.200000    0.00006400 454 t-inv F
 -0.280000  0.480000  0.240000    0.00006400 455 t-inv F
 -0.040000 -0.000000 -0.000000    0.00006400   2 t-inv F
  0.000000  0.040000  0.000000    0.00006400   2 t-inv F
 -0.000000 -0.040000 -0.000000    0.00006400   2 t-inv F
  0.000000  0.000000  0.040000    0.00006400   2 t-inv F
 -0.000000 -0.000000 -0.040000    0.00006400   2 t-inv F
  0.040000  0.040000  0.040000    0.00006400   2 t-inv F
 -0.040000 -0.040000 -0.040000    0.00006400   2 t-inv F
 -0.080000 -0.000000 -0.000000    0.00006400   3 t-inv F
  0.000000  0.080000  0.000000    0.00006400   3 t-inv F
 -0.000000 -0.080000 -0.000000    0.00006400   3 t-inv F
  0.000000  0.000000  0.080000    0.00006400   3 t-inv F
 -0.000000 -0.000000 -0.080000    0.00006400   3 t-inv F
  0.080000  0.080000  0.080000    0.00006400   3 t-inv F
 -0.080000 -0.080000 -0.080000    0.00006400   3 t-inv F
 -0.120000 -0.000000 -0.000000    0.00006400   4 t-inv F
  0.000000  0.120000  0.000000    0.00006400   4 t-inv F
 -0.000000 -0.120000 -0.000000    0.00006400   4 t-inv F
  0.000000  0.000000  0.120000    0.00006400   4 t-inv F
 -0.000000 -0.000000 -0.120000    0.00006400   4 t-inv F
  0.120000  0.120000  0.120000    0.00006400   4 t-inv F
 -0.120000 -0.120000 -0.120000    0.00006400   4 t-inv F
 -0.160000 -0.000000 -0.000000    0.00006400   5 t-inv F
  0.000000  0.160000  0.000000    0.00006400   5 t-inv F
 -0.000000 -0.160000 -0.000000    0.00006400   5 t-inv F
  0.000000  0.000000  0.160000    0.00006400   5 t-inv F
 -0.000000 -0.000000 -0.160000    0.00006400   5 t-inv F
  0.160000  0.160000  0.160000    0.00006400   5 t-inv F
 -0.160000 -0.160000 -0.160000    0.00006400   5 t-inv F
 -0.200000 -0.000000 -0.000000    0.00006400   6 t-inv F
  0.000000  0.200000  0.000000    0.00006400   6 t-inv F
 -0.000000 -0.200000 -0.000000    0.00006400   6 t-inv F
  0.000000  0.000000  0.200000    0.00006400   6 t-inv F
 -0.000000 -0.000000 -0.200000    0.00006400   6 t-inv F
  0.200000  0.200000  0.200000    0.00006400   6 t-inv F
 -0.200000 -0.200000 -0.200000    0.00006400   6 t-inv F
 -0.240000 -0.000000 -0.000000    0.00006400   7 t-inv F
  0.000000  0.240000  0.000000    0.00006400   7 t-inv F
 -0.000000 -0.240000 -0.000000    0.00006400   7 t-inv F
  0.000000  0.000000  0.240000    0.00006400   7 t-inv F
 -0.000000 -0.000000 -0.240000    0.00006400   7 t-inv F
  0.240000  0.240000  0.240000    0.00006400   7 t-inv F
 -0.240000 -0.240000 -0.240000    0.00006400   7 t-inv F
 -0.280000 -0.000000 -0.000000    0.00006400   8 t-inv F
  0.000000  0.280000  0.000000    0.00006400   8 t-inv F
 -0.000000 -0.280000 -0.000000    0.00006400   8 t-inv F
  0.000000  0.000000  0.280000    0.00006400   8 t-inv F
 -0.000000 -0.000000 -0.280000    0.00006400   8 t-inv F
  0.280000  0.280000  0.280000    0.00006400   8 t-inv F
 -0.280000 -0.280000 -0.280000    0.00006400   8 t-inv F
 -0.320000 -0.000000 -0.000000    0.00006400   9 t-inv F
  0.000000  0.320000  0.000000    0.00006400   9 t-inv F
 -0.000000 -0.320000 -0.000000    0.00006400   9 t-inv F
  0.000000  0.000000  0.320000    0.00006400   9 t-inv F
 -0.000000 -0.000000 -0.320000    0.00006400   9 t-inv F
  0.320000  0.320000  0.320000    0.00006400   9 t-inv F
 -0.320000 -0.320000 -0.320000    0.00006400   9 t-inv F
 -0.360000 -0.000000 -0.000000    0.00006400  10 t-inv F
[...]
      4      11.2194      0.00000
      5      18.6245      0.00000
      6      21.0079      0.00000

 k-point   421 :       0.4800    0.3200    0.1600
  band No.  band energies     occupation 
      1       1.4408      2.00000
      2      10.0230      0.00000
      3      11.4928      0.00000
      4      13.9093      0.00000
      5      20.7002      0.00000
      6      22.7397      0.00000

 k-point   422 :      -0.4800    0.3200    0.1600
  band No.  band energies     occupation 
      1       2.1546      2.00000
      2       9.1073     -0.01203
      3      11.1020      0.00000
      4      13.2718      0.00000
      5      21.1710      0.00000
      6      23.1381      0.00000

 k-point   423 :      -0.4400    0.3200    0.1600
  band No.  band energies     occupation 
      1       2.9470      2.00000
      2       7.9902      1.13473
      3      11.0534      0.00000
      4      12.7180      0.00000
      5      21.4400      0.00000
      6      23.2842      0.00000

 k-point   424 :      -0.4000    0.3200    0.1600
  band No.  band energies     occupation 
      1       3.8153      2.00000
      2       6.8676      2.00000
      3      11.1463      0.00000
      4      12.2597      0.00000
      5      21.6696      0.00000
      6      22.7895      0.00000

 k-point   425 :      -0.3600    0.3200    0.1600
  band No.  band energies     occupation 
      1       4.7486      2.00000
      2       5.8007      2.00000
      3      11.2858      0.00000
      4      11.9435      0.00000
      5      21.8834      0.00000
      6      22.5984      0.00000

 k-point   426 :      -0.4800    0.3600    0.1600
  band No.  band energies     occupation 
      1       2.3900      2.00000
      2       9.5952      0.00000
      3      11.0075      0.00000
      4      12.2313      0.00000
      5      20.2935      0.00000
      6      22.1921      0.00000

 k-point   427 :      -0.4400    0.3600    0.1600
  band No.  band energies     occupation 
      1       3.1520      2.00000
      2       8.7300     -0.12013
      3      10.6510      0.00000
      4      11.6628      0.00000
      5      20.8231      0.00000
      6      22.8843      0.00000

 k-point   428 :      -0.4000    0.3600    0.1600
  band No.  band energies     occupation 
      1       3.9891      2.00000
      2       7.6643      1.85950
      3      10.5713      0.00000
      4      11.2481      0.00000
      5      21.1555      0.00000
      6      24.1911      0.00000

 k-point   429 :      -0.3600    0.3600    0.1600
  band No.  band energies     occupation 
      1       4.8945      2.00000
      2       6.5975      2.00000
      3      10.4254      0.00000
      4      11.1411      0.00000
      5      21.4542      0.00000
      6      24.1394      0.00000

 k-point   430 :      -0.3200    0.3600    0.1600
  band No.  band energies     occupation 
      1       5.5130      2.00000
      2       5.9298      2.00000
      3      10.1783      0.00000
      4      11.3336      0.00000
      5      21.7794      0.00000
      6      23.4064      0.00000

 k-point   431 :      -0.2800    0.3600    0.1600
  band No.  band energies     occupation 
      1       4.5924      2.00000
      2       6.9130      2.00000
      3       9.9798      0.00000
      4      11.6764      0.00000
      5      22.1415      0.00000
      6      23.1298      0.00000

 k-point   432 :      -0.2400    0.3600    0.1600
  band No.  band energies     occupation 
      1       3.7055      2.00000
      2       7.9278      1.53442
      3       9.9241      0.00000
      4      12.1215      0.00000
      5      22.4756      0.00000
      6      22.9846      0.00000

 k-point   433 :      -0.2000    0.3600    0.1600
  band No.  band energies     occupation 
      1       2.8915      2.00000
      2       8.7396     -0.19592
      3      10.2185      0.00000
      4      12.6552      0.00000
      5      22.0879      0.00000
      6      22.9422      0.00000

 k-point   434 :      -0.4400    0.4000    0.1600
  band No.  band energies     occupation 
      1       3.4373      2.00000
      2       9.2743      0.00000
      3      10.2422      0.00000
      4      11.0321      0.00000
      5      19.9850      0.00000
      6      21.8665      0.00000

 k-point   435 :      -0.4000    0.4000    0.1600
  band No.  band energies     occupation 
      1       4.2406      2.00000
      2       8.4559      0.11929
      3       9.7865      0.00000
      4      10.6792      0.00000
      5      20.5706      0.00000
      6      22.7068      0.00000

 k-point   436 :      -0.3600    0.4000    0.1600
  band No.  band energies     occupation 
      1       5.1092      2.00000
      2       7.4424      2.08576
      3       9.4197      0.00000
      4      10.6738      0.00000
      5      20.9601      0.00000
      6      23.9717      0.00000

 k-point   437 :      -0.3200    0.4000    0.1600
  band No.  band energies     occupation 
      1       6.0038      2.00000
      2       6.4514      2.00000
      3       9.1131      0.00000
      4      10.8692      0.00000
      5      21.3149      0.00000
      6      24.8439      0.00000

 k-point   438 :      -0.2800    0.4000    0.1600
  band No.  band energies     occupation 
      1       5.4398      2.00000
      2       6.9640      2.00000
      3       8.9470      0.00000
      4      11.1902      0.00000
      5      21.6970      0.00000
      6      24.3653      0.00000

 k-point   439 :      -0.2400    0.4000    0.1600
  band No.  band energies     occupation 
      1       4.5387      2.00000
      2       7.6714      2.02232
      3       9.1343      0.00000
      4      11.6109      0.00000
      5      22.1213      0.00000
      6      23.7101      0.00000

 k-point   440 :      -0.4000    0.4400    0.1600
  band No.  band energies     occupation 
      1       4.5648      2.00000
      2       8.8656     -0.14269
      3       9.0605      0.00000
      4      10.6672      0.00000
      5      19.7780      0.00000
      6      21.6708      0.00000

 k-point   441 :      -0.3600    0.4400    0.1600
  band No.  band energies     occupation 
      1       5.3819      2.00000
      2       8.2169      0.85482
      3       8.5181      0.00000
      4      10.4235      0.00000
      5      20.4177      0.00000
      6      22.6066      0.00000

 k-point   442 :      -0.3200    0.4400    0.1600
  band No.  band energies     occupation 
      1       6.1994      2.00000
      2       7.3002      2.02810
      3       8.2025      0.02724
      4      10.5282      0.00000
      5      20.8614      0.00000
      6      23.7885      0.00000

 k-point   443 :      -0.2800    0.4400    0.1600
  band No.  band energies     occupation 
      1       6.3471      2.00000
      2       6.8179      2.00000
      3       8.2632     -0.00022
      4      10.8021      0.00000
      5      21.2677      0.00000
      6      25.0436      0.00000

 k-point   444 :      -0.3600    0.4800    0.1600
  band No.  band energies     occupation 
      1       5.6659      2.00000
      2       7.5893      2.04190
      3       8.9535      0.00000
      4      10.5348      0.00000
      5      19.6745      0.00000
      6      21.6991      0.00000

 k-point   445 :      -0.3200    0.4800    0.1600
  band No.  band energies     occupation 
      1       6.1786      2.00000
      2       7.5120      2.03822
      3       8.2863     -0.01042
      4      10.3559      0.00000
      5      20.3668      0.00000
      6      22.5780      0.00000

 k-point   446 :      -0.4000    0.4000    0.2000
  band No.  band energies     occupation 
      1       3.9343      2.00000
      2       8.4190      0.13026
      3       9.8282      0.00000
      4      11.0864      0.00000
      5      21.7861      0.00000
      6      23.2199      0.00000

 k-point   447 :      -0.3600    0.4000    0.2000
  band No.  band energies     occupation 
      1       4.7882      2.00000
      2       7.6579      1.99540
      3       9.5719      0.00000
      4      10.6290      0.00000
      5      22.3851      0.00000
      6      23.6878      0.00000

 k-point   448 :      -0.3200    0.4000    0.2000
  band No.  band energies     occupation 
      1       5.6998      2.00000
      2       6.7007      2.00000
      3       9.6012      0.00000
      4      10.3342      0.00000
      5      22.7145      0.00000
      6      23.3330      0.00000

 k-point   449 :      -0.3600    0.4400    0.2000
  band No.  band energies     occupation 
      1       5.0558      2.00000
      2       8.2054      0.78825
      3       9.1733      0.00000
      4      10.0053      0.00000
      5      21.5832      0.00000
      6      23.1616      0.00000

 k-point   450 :      -0.3200    0.4400    0.2000
  band No.  band energies     occupation 
      1       5.9207      2.00000
      2       7.4910      2.07469
      3       8.8559      0.00000
      4       9.7578      0.00000
      5      22.2449      0.00000
      6      23.9756      0.00000

 k-point   451 :      -0.2800    0.4400    0.2000
  band No.  band energies     occupation 
      1       6.5428      2.00000
      2       6.8202      2.00000
      3       8.6996      0.00000
      4       9.8590      0.00000
      5      22.6857      0.00000
      6      24.1555      0.00000

 k-point   452 :      -0.2400    0.4400    0.2000
  band No.  band energies     occupation 
      1       5.6521      2.00000
      2       7.4579      2.00793
      3       8.8475      0.00000
      4      10.1715      0.00000
      5      23.0709      0.00000
      6      23.5861      0.00000

 k-point   453 :      -0.3200    0.4800    0.2000
  band No.  band energies     occupation 
      1       6.1482      2.00000
      2       8.0366      1.72522
      3       8.0986      0.00000
      4       9.7413      0.00000
      5      21.4810      0.00000
      6      23.1119      0.00000

 k-point   454 :      -0.2800    0.4800    0.2000
  band No.  band energies     occupation 
      1       6.7113      2.00000
      2       7.4071      2.00000
      3       8.0825      0.00000
      4       9.6169      0.00000
      5      22.1967      0.00000
      6      24.0744      0.00000

 k-point   455 :      -0.2800    0.4800    0.2400
  band No.  band energies     occupation 
      1       6.7346      2.00000
      2       7.3512      2.00000
      3       8.3706      0.00000
      4       9.2581      0.00000
      5      23.3799      0.00000
      6      24.0758      0.00000


--------------------------------------------------------------------------------------------------------


 soft charge-density along one line, spin component           1
         0         1         2         3         4         5         6         7         8         9
 total charge-density along one line

 pseudopotential strength for first ion, spin component:           1
  8.444  14.390  -0.000   0.000   0.000  -0.000   0.000   0.000
 14.390  24.526  -0.000   0.000   0.000  -0.000   0.000   0.000
 -0.000  -0.000   1.988   0.000   0.000   5.731   0.000   0.000
  0.000   0.000   0.000   1.988   0.000   0.000   5.731   0.000
  0.000   0.000   0.000   0.000   1.988   0.000   0.000   5.731
 -0.000  -0.000   5.731   0.000   0.000  16.436   0.000   0.000
  0.000   0.000   0.000   5.731   0.000   0.000  16.436   0.000
  0.000   0.000   0.000   0.000   5.731   0.000   0.000  16.436
 total augmentation occupancy for first ion, spin component:           1
  3.365  -0.830   0.000   0.000   0.000   0.000   0.000   0.000
 -0.830   0.271   0.000   0.000   0.000   0.000   0.000   0.000
  0.000   0.000   1.117   0.000   0.000  -0.073  -0.000  -0.000
  0.000   0.000   0.000   1.117   0.000  -0.000  -0.073  -0.000
  0.000   0.000   0.000   0.000   1.117  -0.000  -0.000  -0.073
  0.000   0.000  -0.073  -0.000  -0.000   0.005   0.000   0.000
  0.000   0.000  -0.000  -0.073  -0.000   0.000   0.005   0.000
  0.000   0.000  -0.000  -0.000  -0.073   0.000   0.000   0.005


------------------------ aborting loop because EDIFF is reached ----------------------------------------





 total charge

# of ion       s       p       d       tot
------------------------------------------
    1        0.427   0.340   0.000   0.768

    CHARGE:  cpu time      0.0167: real time      0.0167
    FORLOC:  cpu time      0.0001: real time      0.0001
    FORNL :  cpu time      0.0162: real time      0.0162
    STRESS:  cpu time      0.2499: real time      0.2499
    FORCOR:  cpu time      0.0032: real time      0.0032
    FORHAR:  cpu time      0.0007: real time      0.0007
    MIXING:  cpu time      0.0001: real time      0.0001
    OFIELD:  cpu time      0.0000: real time      0.0000

  FORCE on cell =-STRESS in cart. coord.  units (eV):
  Direction    XX          YY          ZZ          XY          YZ          ZX
  --------------------------------------------------------------------------------------
  Alpha Z    -0.20386    -0.20386    -0.20386
  Ewald     -24.51728   -24.51728   -24.51728    -0.00000    -0.00000    -0.00000
  Hartree     0.03498     0.03498     0.03498     0.00000     0.00000     0.00000
  E(xc)      -8.56744    -8.56745    -8.56746     0.00001     0.00000     0.00001
  Local       0.36004     0.36004     0.36004    -0.00000    -0.00000    -0.00000
  n-local    18.23810    19.14929    19.23951     0.70110    -0.24171     0.25093
  augment    -1.02617    -1.02617    -1.02617     0.00000     0.00000     0.00000
  Kinetic    24.76073    13.19212     7.12909    -6.09485     1.28573   -10.89229
  Fock        0.00000     0.00000     0.00000     0.00000     0.00000     0.00000
  -------------------------------------------------------------------------------------
  Total      -0.01680    -0.01680    -0.01680     0.00000    -0.00000     0.00000
  in kB      -1.63370    -1.63370    -1.63370     0.00000    -0.00000     0.00000
  external pressure =       -1.63 kB  Pullay stress =        0.00 kB


 VOLUME and BASIS-vectors are now :
 -----------------------------------------------------------------------------
  energy-cutoff  :      400.00
  volume of cell :       16.48
      direct lattice vectors                 reciprocal lattice vectors
     2.856184718  0.000000000  0.000000000     0.350117411 -0.202140382 -0.142934835
     1.428092359  2.473528523  0.000000000     0.000000000  0.404280763 -0.142934835
     1.428092359  0.824509508  2.332065057     0.000000000  0.000000000  0.428804504

  length of vectors
     2.856184718  2.856184718  2.856184718     0.428804504  0.428804504  0.428804504


 FORCES acting on ions
    electron-ion (+dipol)            ewald-force                    non-local-force                 convergence-correction
 -----------------------------------------------------------------------------------------------
   -.266E-15 -.565E-15 0.315E-15   -.246E-15 0.498E-16 0.464E-16   0.996E-23 0.122E-22 0.886E-23   0.148E-17 -.341E-17 0.123E-17
 -----------------------------------------------------------------------------------------------
   -.266E-15 -.565E-15 0.315E-15   -.246E-15 0.498E-16 0.464E-16   0.996E-23 0.122E-22 0.886E-23   0.148E-17 -.341E-17 0.123E-17


 POSITION                                       TOTAL-FORCE (eV/Angst)
 -----------------------------------------------------------------------------------
      0.00000      0.00000      0.00000        -0.000000      0.000000      0.000000
 -----------------------------------------------------------------------------------
    total drift:                               -0.000000     -0.000000      0.000000


--------------------------------------------------------------------------------------------------------



  FREE ENERGIE OF THE ION-ELECTRON SYSTEM (eV)
  ---------------------------------------------------
  free  energy   TOTEN  =        -3.74519540 eV

  energy  without entropy=       -3.74519540  energy(sigma->0) =       -3.74519540



--------------------------------------------------------------------------------------------------------


    POTLOK:  cpu time      0.0043: real time      0.0043


--------------------------------------------------------------------------------------------------------


 -----------------------------------------------------------------------------
|                                                                             |
|           W    W    AA    RRRRR   N    N  II  N    N   GGGG   !!!           |
|           W    W   A  A   R    R  NN   N  II  NN   N  G    G  !!!           |
|           W    W  A    A  R    R  N N  N  II  N N  N  G       !!!           |
|           W WW W  AAAAAA  RRRRR   N  N N  II  N  N N  G  GGG   !            |
|           WW  WW  A    A  R   R   N   NN  II  N   NN  G    G                |
|           W    W  A    A  R    R  N    N  II  N    N   GGGG   !!!           |
|                                                                             |
|     Changing the smearing to ISMEAR=1 (the default) for those parts of      |
|     this job that use k-points specified in line-mode.                      |
|                                                                             |
 -----------------------------------------------------------------------------




 total charge

# of ion       s       p       d       tot
------------------------------------------
    1        0.427   0.340   0.000   0.768

 writing wavefunctions
     LOOP+:  cpu time      6.4565: real time      6.4600
 -----------------------------------------------------------------------------
|                                                                             |
|           W    W    AA    RRRRR   N    N  II  N    N   GGGG   !!!           |
|           W    W   A  A   R    R  NN   N  II  NN   N  G    G  !!!           |
|           W    W  A    A  R    R  N N  N  II  N N  N  G       !!!           |
|           W WW W  AAAAAA  RRRRR   N  N N  II  N  N N  G  GGG   !            |
|           WW  WW  A    A  R   R   N   NN  II  N   NN  G    G                |
|           W    W  A    A  R    R  N    N  II  N    N   GGGG   !!!           |
|                                                                             |
|     Tetrahedron method does not include variations of the Fermi             |
|     occupations, so forces and stress will be inaccurate. We suggest        |
|     using a different smearing scheme ISMEAR = 1 or 2 for metals in         |
|     relaxations.                                                            |
|                                                                             |
 -----------------------------------------------------------------------------

    4ORBIT:  cpu time      0.0000: real time      0.0000



 total charge

# of ion       s       p       d       tot
------------------------------------------
    1        0.427   0.340   0.000   0.768

 BZINTS: Fermi energy:    8.045289;    3.000000 electrons
         Band energy: 0.107626E+02;  BLOECHL correction:   -0.025514

 total amount of memory used by VASP MPI-rank0    47151. kBytes
=======================================================================

   base      :      30000. kBytes
   nonl-proj :       9090. kBytes
   fftplans  :        406. kBytes
   grid      :        664. kBytes
   one-center:          3. kBytes
   wavefun   :       6988. kBytes

  
  
 General timing and accounting informations for this job:
 ========================================================
  
                  Total CPU time used (sec):        8.706
                            User time (sec):        8.335
                          System time (sec):        0.371
                         Elapsed time (sec):        8.902
  
                   Maximum memory used (kb):      120428.
                   Average memory used (kb):          N/A
  
                          Minor page faults:        31937
                          Major page faults:            1
                 Voluntary context switches:         1146
