 running    2 mpi-ranks, with    1 threads/rank, on    1 nodes
 distrk:  each k-point on    2 cores,    1 groups
 distr:  one band on    1 cores,    2 groups
 vasp.6.4.2 20Jul23 (build Oct 18 2023 12:49:41) complex                         
 POSCAR found type information on POSCAR Al
 POSCAR found :  1 types and       1 ions
 Reading from existing POTCAR
 scaLAPACK will be used
 Reading from existing POTCAR
 LDA part: xc-table for Pade appr. of Perdew
 found WAVECAR, reading the header
  number of bands has changed, file:     5 present:     6
  trying to continue reading WAVECAR, but it might fail
 POSCAR, INCAR and KPOINTS ok, starting setup
 FFT: planning ... GRIDC
 FFT: planning ... GRID_SOFT
 FFT: planning ... GRID
 reading WAVECAR
 random initialization beyond band            5
 the WAVECAR file was read successfully
 initial charge from wavefunction
 entering main loop
       N       E                     dE             d eps       ncg     rms          rms(c)
DAV:   1    -0.374519523236E+01   -0.37452E+01   -0.36684E-06  4700   0.163E-02    0.210E-03
DAV:   2    -0.374519539867E+01   -0.16632E-06   -0.18812E-06  4276   0.116E-02
   1 F= -.37451954E+01 E0= -.37451954E+01  d E =0.000000E+00
 Start KPOINTS_OPT (optional k-point list driver)
 -----------------------------------------------------------------------------
|                                                                             |
|           W    W    AA    RRRRR   N    N  II  N    N   GGGG   !!!           |
|           W    W   A  A   R    R  NN   N  II  NN   N  G    G  !!!           |
|           W    W  A    A  R    R  N N  N  II  N N  N  G       !!!           |
|           W WW W  AAAAAA  RRRRR   N  N N  II  N  N N  G  GGG   !            |
|           WW  WW  A    A  R   R   N   NN  II  N   NN  G    G                |
|           W    W  A    A  R    R  N    N  II  N    N   GGGG   !!!           |
|                                                                             |
|     Changing the smearing to ISMEAR=1 (the default) for those parts of      |
|     this job that use k-points specified in line-mode.                      |
|                                                                             |
 -----------------------------------------------------------------------------

k-point batch [1-270\270]
       N       E                     dE             ncg
DAV:   1     0.443498658271E+04   -0.18369E+05     3440
DAV:   2     0.356210128257E+04   -0.87289E+03     4000
DAV:   3     0.352904235268E+04   -0.33059E+02     4052
DAV:   4     0.352867567188E+04   -0.36668E+00     3784
DAV:   5     0.352866606951E+04   -0.96024E-02     3652
DAV:   6     0.352866576872E+04   -0.30079E-03     2604
DAV:   7     0.352866574485E+04   -0.23868E-04     2218
 writing wavefunctions
 -----------------------------------------------------------------------------
|                                                                             |
|           W    W    AA    RRRRR   N    N  II  N    N   GGGG   !!!           |
|           W    W   A  A   R    R  NN   N  II  NN   N  G    G  !!!           |
|           W    W  A    A  R    R  N N  N  II  N N  N  G       !!!           |
|           W WW W  AAAAAA  RRRRR   N  N N  II  N  N N  G  GGG   !            |
|           WW  WW  A    A  R   R   N   NN  II  N   NN  G    G                |
|           W    W  A    A  R    R  N    N  II  N    N   GGGG   !!!           |
|                                                                             |
|     Tetrahedron method does not include variations of the Fermi             |
|     occupations, so forces and stress will be inaccurate. We suggest        |
|     using a different smearing scheme ISMEAR = 1 or 2 for metals in         |
|     relaxations.                                                            |
|                                                                             |
 -----------------------------------------------------------------------------

