 running    2 mpi-ranks, with    1 threads/rank, on    1 nodes
 distrk:  each k-point on    2 cores,    1 groups
 distr:  one band on    2 cores,    1 groups
 vasp.6.4.2 20Jul23 (build Oct 18 2023 12:49:41) complex                         
 POSCAR found type information on POSCAR Al
 POSCAR found :  1 types and       1 ions
 Reading from existing POTCAR
 scaLAPACK will be used
 Reading from existing POTCAR
 LDA part: xc-table for Pade appr. of Perdew
 POSCAR, INCAR and KPOINTS ok, starting setup
 FFT: planning ... GRIDC
 FFT: planning ... GRID_SOFT
 FFT: planning ... GRID
 WAVECAR not read
 entering main loop
       N       E                     dE             d eps       ncg     rms          rms(c)
DAV:   1     0.723553386929E+00    0.72355E+00   -0.62921E+02  4974   0.251E+02
DAV:   2    -0.361136676515E+01   -0.43349E+01   -0.39881E+01  5505   0.688E+01
DAV:   3    -0.376667078304E+01   -0.15530E+00   -0.15215E+00  5535   0.875E+00
DAV:   4    -0.376775239135E+01   -0.10816E-02   -0.10774E-02  5207   0.855E-01
DAV:   5    -0.376776279795E+01   -0.10407E-04   -0.10378E-04  4703   0.866E-02    0.131E+00
DAV:   6    -0.375470393321E+01    0.13059E-01   -0.13448E-03  4915   0.303E-01    0.763E-01
DAV:   7    -0.374519521213E+01    0.95087E-02   -0.41246E-03  4802   0.494E-01    0.143E-01
DAV:   8    -0.374519547438E+01   -0.26224E-06   -0.37097E-05  3073   0.626E-02
   1 F= -.37451955E+01 E0= -.37451955E+01  d E =0.000000E+00
 writing wavefunctions
 -----------------------------------------------------------------------------
|                                                                             |
|           W    W    AA    RRRRR   N    N  II  N    N   GGGG   !!!           |
|           W    W   A  A   R    R  NN   N  II  NN   N  G    G  !!!           |
|           W    W  A    A  R    R  N N  N  II  N N  N  G       !!!           |
|           W WW W  AAAAAA  RRRRR   N  N N  II  N  N N  G  GGG   !            |
|           WW  WW  A    A  R   R   N   NN  II  N   NN  G    G                |
|           W    W  A    A  R    R  N    N  II  N    N   GGGG   !!!           |
|                                                                             |
|     Tetrahedron method does not include variations of the Fermi             |
|     occupations, so forces and stress will be inaccurate. We suggest        |
|     using a different smearing scheme ISMEAR = 1 or 2 for metals in         |
|     relaxations.                                                            |
|                                                                             |
 -----------------------------------------------------------------------------

