 running    2 mpi-ranks, with    1 threads/rank, on    1 nodes
 distrk:  each k-point on    2 cores,    1 groups
 distr:  one band on    2 cores,    1 groups
 vasp.6.4.2 20Jul23 (build Oct 18 2023 12:49:41) complex                         
 POSCAR found type information on POSCAR Al
 POSCAR found :  1 types and       1 ions
 Reading from existing POTCAR
 scaLAPACK will be used
 Reading from existing POTCAR
 LDA part: xc-table for Pade appr. of Perdew
 POSCAR, INCAR and KPOINTS ok, starting setup
 FFT: planning ... GRIDC
 FFT: planning ... GRID_SOFT
 FFT: planning ... GRID
 WAVECAR not read
 entering main loop
       N       E                     dE             d eps       ncg     rms          rms(c)
DAV:   1     0.618221284785E+00    0.61822E+00   -0.59078E+02  1310   0.244E+02
DAV:   2    -0.362327303983E+01   -0.42415E+01   -0.38791E+01  1466   0.695E+01
DAV:   3    -0.376289925767E+01   -0.13963E+00   -0.13654E+00  1454   0.855E+00
DAV:   4    -0.376406118597E+01   -0.11619E-02   -0.11820E-02  1373   0.868E-01
DAV:   5    -0.376407255378E+01   -0.11368E-04   -0.11526E-04  1264   0.890E-02    0.130E+00
DAV:   6    -0.375101868378E+01    0.13054E-01   -0.13853E-03  1293   0.309E-01    0.760E-01
DAV:   7    -0.374156819705E+01    0.94505E-02   -0.42516E-03  1266   0.504E-01    0.143E-01
DAV:   8    -0.374157163896E+01   -0.34419E-05   -0.37226E-05   849   0.628E-02
   1 F= -.37415716E+01 E0= -.37415716E+01  d E =0.000000E+00
 writing wavefunctions
 -----------------------------------------------------------------------------
|                                                                             |
|           W    W    AA    RRRRR   N    N  II  N    N   GGGG   !!!           |
|           W    W   A  A   R    R  NN   N  II  NN   N  G    G  !!!           |
|           W    W  A    A  R    R  N N  N  II  N N  N  G       !!!           |
|           W WW W  AAAAAA  RRRRR   N  N N  II  N  N N  G  GGG   !            |
|           WW  WW  A    A  R   R   N   NN  II  N   NN  G    G                |
|           W    W  A    A  R    R  N    N  II  N    N   GGGG   !!!           |
|                                                                             |
|     Tetrahedron method does not include variations of the Fermi             |
|     occupations, so forces and stress will be inaccurate. We suggest        |
|     using a different smearing scheme ISMEAR = 1 or 2 for metals in         |
|     relaxations.                                                            |
|                                                                             |
 -----------------------------------------------------------------------------

