 running    2 mpi-ranks, with    1 threads/rank, on    1 nodes
 distrk:  each k-point on    2 cores,    1 groups
 distr:  one band on    2 cores,    1 groups
 vasp.6.4.2 20Jul23 (build Oct 18 2023 12:49:41) complex                         
 POSCAR found type information on POSCAR Al
 POSCAR found :  1 types and       1 ions
 Reading from existing POTCAR
 scaLAPACK will be used
 Reading from existing POTCAR
 LDA part: xc-table for Pade appr. of Perdew
 POSCAR, INCAR and KPOINTS ok, starting setup
 FFT: planning ... GRIDC
 FFT: planning ... GRID_SOFT
 FFT: planning ... GRID
 WAVECAR not read
 entering main loop
       N       E                     dE             d eps       ncg     rms          rms(c)
DAV:   1     0.101455361218E+00    0.10146E+00   -0.46905E+02  1916   0.164E+02
DAV:   2    -0.366420881736E+01   -0.37657E+01   -0.34774E+01  1983   0.536E+01
DAV:   3    -0.376012736429E+01   -0.95919E-01   -0.95608E-01  1984   0.630E+00
DAV:   4    -0.376045839081E+01   -0.33103E-03   -0.33372E-03  1895   0.454E-01
DAV:   5    -0.376045998390E+01   -0.15931E-05   -0.16088E-05  1489   0.327E-02    0.153E+00
DAV:   6    -0.374760533395E+01    0.12855E-01   -0.12384E-03  1781   0.259E-01    0.879E-01
DAV:   7    -0.373811318649E+01    0.94921E-02   -0.39585E-03  1746   0.434E-01    0.174E-01
DAV:   8    -0.373811311241E+01    0.74078E-07   -0.34229E-05  1087   0.571E-02
   1 F= -.37381131E+01 E0= -.37381131E+01  d E =0.000000E+00
 writing wavefunctions
 -----------------------------------------------------------------------------
|                                                                             |
|           W    W    AA    RRRRR   N    N  II  N    N   GGGG   !!!           |
|           W    W   A  A   R    R  NN   N  II  NN   N  G    G  !!!           |
|           W    W  A    A  R    R  N N  N  II  N N  N  G       !!!           |
|           W WW W  AAAAAA  RRRRR   N  N N  II  N  N N  G  GGG   !            |
|           WW  WW  A    A  R   R   N   NN  II  N   NN  G    G                |
|           W    W  A    A  R    R  N    N  II  N    N   GGGG   !!!           |
|                                                                             |
|     Tetrahedron method does not include variations of the Fermi             |
|     occupations, so forces and stress will be inaccurate. We suggest        |
|     using a different smearing scheme ISMEAR = 1 or 2 for metals in         |
|     relaxations.                                                            |
|                                                                             |
 -----------------------------------------------------------------------------

