PROCAR lm decomposed
# of k-points:  455         # of bands:    6         # of ions:    1

 k-point     1 :    0.00000000 0.00000000 0.00000000     weight = 0.00006400

band     1 # energy   -3.12891113 # occ.  2.00000000

ion      s     py     pz     px    dxy    dyz    dz2    dxz  x2-y2    tot
    1  0.270  0.000  0.000  0.000  0.000  0.000  0.000  0.000  0.000  0.270

band     2 # energy   20.64539791 # occ.  0.00000000

ion      s     py     pz     px    dxy    dyz    dz2    dxz  x2-y2    tot
    1  0.000  0.000  0.000  0.000  0.000  0.000  0.000  0.000  0.000  0.000

band     3 # energy   20.64539886 # occ.  0.00000000

ion      s     py     pz     px    dxy    dyz    dz2    dxz  x2-y2    tot
    1  0.000  0.000  0.000  0.000  0.000  0.000  0.000  0.000  0.000  0.000

band     4 # energy   20.64540317 # occ.  0.00000000

ion      s     py     pz     px    dxy    dyz    dz2    dxz  x2-y2    tot
    1  0.000  0.000  0.000  0.000  0.000  0.000  0.000  0.000  0.000  0.000

band     5 # energy   22.14575151 # occ.  0.00000000

ion      s     py     pz     px    dxy    dyz    dz2    dxz  x2-y2    tot
    1  0.000  0.027  0.030  0.460  0.000  0.000  0.000  0.000  0.000  0.516

band     6 # energy   24.49141548 # occ.  0.00000000

ion      s     py     pz     px    dxy    dyz    dz2    dxz  x2-y2    tot
    1  0.000  0.001  0.000  0.000  0.000  0.000  0.000  0.000  0.000  0.001


 k-point     2 :    0.04000000 0.00000000 0.00000000     weight = 0.00051200

band     1 # energy   -3.08537294 # occ.  2.00000000

ion      s     py     pz     px    dxy    dyz    dz2    dxz  x2-y2    tot
    1  0.269  0.000  0.000  0.001  0.000  0.000  0.000  0.000  0.000  0.270

band     2 # energy   19.70661842 # occ.  0.00000000

ion      s     py     pz     px    dxy    dyz    dz2    dxz  x2-y2    tot
    1  0.002  0.025  0.012  0.074  0.000  0.000  0.000  0.000  0.000  0.112

band     3 # energy   20.46600961 # occ.  0.00000000

ion      s     py     pz     px    dxy    dyz    dz2    dxz  x2-y2    tot
    1  0.000  0.022  0.040  0.000  0.000  0.000  0.000  0.000  0.000  0.062

band     4 # energy   20.46601782 # occ.  0.00000000

ion      s     py     pz     px    dxy    dyz    dz2    dxz  x2-y2    tot
    1  0.000  0.026  0.015  0.020  0.000  0.000  0.000  0.000  0.000  0.062

band     5 # energy   22.39494435 # occ.  0.00000000

ion      s     py     pz     px    dxy    dyz    dz2    dxz  x2-y2    tot
    1  0.000  0.273  0.160  0.024  0.000  0.000  0.000  0.000  0.000  0.457

band     6 # energy   22.60227953 # occ.  0.00000000

ion      s     py     pz     px    dxy    dyz    dz2    dxz  x2-y2    tot
    1  0.010  0.087  0.037  0.242  0.000  0.000  0.000  0.000  0.000  0.376


 k-point     3 :    0.08000000 0.00000000 0.00000000     weight = 0.00051200

band     1 # energy   -2.95479955 # occ.  2.00000000

ion      s     py     pz     px    dxy    dyz    dz2    dxz  x2-y2    tot
    1  0.267  0.001  0.000  0.002  0.000  0.000  0.000  0.000  0.000  0.270

band     2 # energy   18.16273549 # occ.  0.00000000

ion      s     py     pz     px    dxy    dyz    dz2    dxz  x2-y2    tot
    1  0.008  0.034  0.017  0.101  0.000  0.000  0.000  0.000  0.000  0.160

band     3 # energy   20.10881177 # occ.  0.00000000

ion      s     py     pz     px    dxy    dyz    dz2    dxz  x2-y2    tot
    1  0.000  0.034  0.099  0.001  0.000  0.000  0.000  0.000  0.000  0.134

band     4 # energy   20.10882083 # occ.  0.00000000

ion      s     py     pz     px    dxy    dyz    dz2    dxz  x2-y2    tot
    1  0.000  0.070  0.020  0.044  0.000  0.000  0.000  0.000  0.000  0.134

band     5 # energy   22.80367173 # occ.  0.00000000

ion      s     py     pz     px    dxy    dyz    dz2    dxz  x2-y2    tot
    1  0.026  0.067  0.033  0.176  0.000  0.000  0.000  0.000  0.000  0.302

band     6 # energy   22.96844779 # occ.  0.00000000

ion      s     py     pz     px    dxy    dyz    dz2    dxz  x2-y2    tot
    1  0.003  0.215  0.058  0.124  0.000  0.000  0.000  0.000  0.000  0.400


 k-point     4 :    0.12000000 0.00000000 0.00000000     weight = 0.00051200

band     1 # energy   -2.73746385 # occ.  2.00000000

ion      s     py     pz     px    dxy    dyz    dz2    dxz  x2-y2    tot
    1  0.263  0.002  0.001  0.005  0.000  0.000  0.000  0.000  0.000  0.271

band     2 # energy   16.54171640 # occ.  0.00000000

ion      s     py     pz     px    dxy    dyz    dz2    dxz  x2-y2    tot
    1  0.017  0.037  0.018  0.110  0.000  0.000  0.000  0.000  0.000  0.182

band     3 # energy   19.74478205 # occ.  0.00000000

ion      s     py     pz     px    dxy    dyz    dz2    dxz  x2-y2    tot
    1  0.000  0.060  0.119  0.000  0.000  0.000  0.000  0.000  0.000  0.179

band     4 # energy   19.74479517 # occ.  0.00000000

ion      s     py     pz     px    dxy    dyz    dz2    dxz  x2-y2    tot
    1  0.000  0.079  0.040  0.060  0.000  0.000  0.000  0.000  0.000  0.179

band     5 # energy   22.76130040 # occ.  0.00000000

ion      s     py     pz     px    dxy    dyz    dz2    dxz  x2-y2    tot
    1  0.049  0.046  0.023  0.137  0.000  0.000  0.000  0.000  0.000  0.254

band     6 # energy   23.63806044 # occ.  0.00000000

ion      s     py     pz     px    dxy    dyz    dz2    dxz  x2-y2    tot
    1  0.001  0.185  0.041  0.128  0.000  0.000  0.000  0.000  0.000  0.355


 k-point     5 :    0.16000000 0.00000000 0.00000000     weight = 0.00051200

band     1 # energy   -2.43373842 # occ.  2.00000000

ion      s     py     pz     px    dxy    dyz    dz2    dxz  x2-y2    tot
    1  0.257  0.003  0.002  0.009  0.000  0.000  0.000  0.000  0.000  0.271

band     2 # energy   14.92933853 # occ.  0.00000000

ion      s     py     pz     px    dxy    dyz    dz2    dxz  x2-y2    tot
    1  0.029  0.038  0.019  0.113  0.000  0.000  0.000  0.000  0.000  0.198

band     3 # energy   19.42501699 # occ.  0.00000000

ion      s     py     pz     px    dxy    dyz    dz2    dxz  x2-y2    tot
    1  0.000  0.069  0.138  0.000  0.000  0.000  0.000  0.000  0.000  0.206

band     4 # energy   19.42503227 # occ.  0.00000000

ion      s     py     pz     px    dxy    dyz    dz2    dxz  x2-y2    tot
    1  0.000  0.092  0.046  0.069  0.000  0.000  0.000  0.000  0.000  0.206

band     5 # energy   22.64043723 # occ.  0.00000000

ion      s     py     pz     px    dxy    dyz    dz2    dxz  x2-y2    tot
    1  0.071  0.033  0.017  0.100  0.000  0.000  0.000  0.000  0.000  0.221

band     6 # energy   24.14838477 # occ.  0.00000000

ion      s     py     pz     px    dxy    dyz    dz2    dxz  x2-y2    tot
    1  0.001  0.057  0.280  0.005  0.000  0.000  0.000  0.000  0.000  0.342


 k-point     6 :    0.20000000 0.00000000 0.00000000     weight = 0.00051200

band     1 # energy   -2.04421355 # occ.  2.00000000

ion      s     py     pz     px    dxy    dyz    dz2    dxz  x2-y2    tot
    1  0.249  0.005  0.002  0.014  0.000  0.000  0.000  0.000  0.000  0.271

band     2 # energy   13.35407359 # occ.  0.00000000

ion      s     py     pz     px    dxy    dyz    dz2    dxz  x2-y2    tot
    1  0.041  0.038  0.019  0.113  0.000  0.000  0.000  0.000  0.000  0.211

band     3 # energy   19.16532977 # occ.  0.00000000

ion      s     py     pz     px    dxy    dyz    dz2    dxz  x2-y2    tot
    1  0.000  0.075  0.150  0.000  0.000  0.000  0.000  0.000  0.000  0.225

band     4 # energy   19.16534726 # occ.  0.00000000

ion      s     py     pz     px    dxy    dyz    dz2    dxz  x2-y2    tot
    1  0.000  0.100  0.050  0.075  0.000  0.000  0.000  0.000  0.000  0.225

band     5 # energy   22.51013072 # occ.  0.00000000

ion      s     py     pz     px    dxy    dyz    dz2    dxz  x2-y2    tot
    1  0.091  0.023  0.012  0.070  0.000  0.000  0.000  0.000  0.000  0.196

band     6 # energy   23.72065396 # occ.  0.00000000

ion      s     py     pz     px    dxy    dyz    dz2    dxz  x2-y2    tot
    1  0.002  0.142  0.081  0.010  0.000  0.000  0.000  0.000  0.000  0.234


 k-point     7 :    0.24000000 0.00000000 0.00000000     weight = 0.00051200

band     1 # energy   -1.56956018 # occ.  2.00000000

ion      s     py     pz     px    dxy    dyz    dz2    dxz  x2-y2    tot
    1  0.240  0.007  0.003  0.020  0.000  0.000  0.000  0.000  0.000  0.270

band     2 # energy   11.83016204 # occ.  0.00000000

ion      s     py     pz     px    dxy    dyz    dz2    dxz  x2-y2    tot
    1  0.056  0.037  0.019  0.111  0.000  0.000  0.000  0.000  0.000  0.222

band     3 # energy   18.97255342 # occ.  0.00000000

ion      s     py     pz     px    dxy    dyz    dz2    dxz  x2-y2    tot
    1  0.000  0.079  0.159  0.000  0.000  0.000  0.000  0.000  0.000  0.238

band     4 # energy   18.97257248 # occ.  0.00000000

ion      s     py     pz     px    dxy    dyz    dz2    dxz  x2-y2    tot
    1  0.000  0.106  0.053  0.079  0.000  0.000  0.000  0.000  0.000  0.238

band     5 # energy   22.40538355 # occ.  0.00000000

ion      s     py     pz     px    dxy    dyz    dz2    dxz  x2-y2    tot
    1  0.107  0.015  0.008  0.046  0.000  0.000  0.000  0.000  0.000  0.176

band     6 # energy   23.09440149 # occ.  0.00000000

ion      s     py     pz     px    dxy    dyz    dz2    dxz  x2-y2    tot
    1  0.004  0.009  0.149  0.034  0.000  0.000  0.000  0.000  0.000  0.197


 k-point     8 :    0.28000000 0.00000000 0.00000000     weight = 0.00051200

band     1 # energy   -1.01062806 # occ.  2.00000000

ion      s     py     pz     px    dxy    dyz    dz2    dxz  x2-y2    tot
    1  0.229  0.009  0.005  0.027  0.000  0.000  0.000  0.000  0.000  0.270

band     2 # energy   10.36513024 # occ.  0.00000000

ion      s     py     pz     px    dxy    dyz    dz2    dxz  x2-y2    tot
    1  0.071  0.036  0.018  0.108  0.000  0.000  0.000  0.000  0.000  0.232

band     3 # energy   18.84942680 # occ.  0.00000000

ion      s     py     pz     px    dxy    dyz    dz2    dxz  x2-y2    tot
    1  0.000  0.082  0.164  0.000  0.000  0.000  0.000  0.000  0.000  0.247

band     4 # energy   18.84944700 # occ.  0.00000000

ion      s     py     pz     px    dxy    dyz    dz2    dxz  x2-y2    tot
    1  0.000  0.110  0.055  0.082  0.000  0.000  0.000  0.000  0.000  0.247

band     5 # energy   22.27130012 # occ.  0.00000000

ion      s     py     pz     px    dxy    dyz    dz2    dxz  x2-y2    tot
    1  0.004  0.080  0.108  0.007  0.000  0.000  0.000  0.000  0.000  0.199

band     6 # energy   22.35979840 # occ.  0.00000000

ion      s     py     pz     px    dxy    dyz    dz2    dxz  x2-y2    tot
    1  0.111  0.017  0.002  0.023  0.000  0.000  0.000  0.000  0.000  0.153


 k-point     9 :    0.32000000 0.00000000 0.00000000     weight = 0.00051200

band     1 # energy   -0.36839755 # occ.  2.00000000

ion      s     py     pz     px    dxy    dyz    dz2    dxz  x2-y2    tot
    1  0.217  0.012  0.006  0.035  0.000  0.000  0.000  0.000  0.000  0.269

band     2 # energy    8.96404718 # occ. -0.09780008

ion      s     py     pz     px    dxy    dyz    dz2    dxz  x2-y2    tot
    1  0.087  0.034  0.017  0.102  0.000  0.000  0.000  0.000  0.000  0.240

band     3 # energy   18.79752864 # occ.  0.00000000

ion      s     py     pz     px    dxy    dyz    dz2    dxz  x2-y2    tot
    1  0.000  0.085  0.167  0.000  0.000  0.000  0.000  0.000  0.000  0.252

band     4 # energy   18.79754947 # occ.  0.00000000

ion      s     py     pz     px    dxy    dyz    dz2    dxz  x2-y2    tot
    1  0.000  0.111  0.057  0.084  0.000  0.000  0.000  0.000  0.000  0.252

band     5 # energy   21.59914129 # occ.  0.00000000

ion      s     py     pz     px    dxy    dyz    dz2    dxz  x2-y2    tot
    1  0.000  0.133  0.010  0.060  0.000  0.000  0.000  0.000  0.000  0.203

band     6 # energy   22.42551243 # occ.  0.00000000

ion      s     py     pz     px    dxy    dyz    dz2    dxz  x2-y2    tot
    1  0.152  0.009  0.004  0.026  0.000  0.000  0.000  0.000  0.000  0.191


 k-point    10 :    0.36000000 0.00000000 0.00000000     weight = 0.00051200

band     1 # energy    0.35605759 # occ.  2.00000000

ion      s     py     pz     px    dxy    dyz    dz2    dxz  x2-y2    tot
    1  0.203  0.015  0.007  0.044  0.000  0.000  0.000  0.000  0.000  0.268

band     2 # energy    7.63051720 # occ.  1.77022457

ion      s     py     pz     px    dxy    dyz    dz2    dxz  x2-y2    tot
    1  0.104  0.032  0.016  0.096  0.000  0.000  0.000  0.000  0.000  0.248

band     3 # energy   18.81774052 # occ.  0.00000000

ion      s     py     pz     px    dxy    dyz    dz2    dxz  x2-y2    tot
    1  0.000  0.085  0.170  0.000  0.000  0.000  0.000  0.000  0.000  0.255

band     4 # energy   18.81776227 # occ.  0.00000000

ion      s     py     pz     px    dxy    dyz    dz2    dxz  x2-y2    tot
    1  0.000  0.113  0.057  0.085  0.000  0.000  0.000  0.000  0.000  0.255

band     5 # energy   21.00151017 # occ.  0.00000000

ion      s     py     pz     px    dxy    dyz    dz2    dxz  x2-y2    tot
    1  0.000  0.039  0.149  0.022  0.000  0.000  0.000  0.000  0.000  0.209

band     6 # energy   21.35393891 # occ.  0.00000000

ion      s     py     pz     px    dxy    dyz    dz2    dxz  x2-y2    tot
    1  0.038  0.131  0.045  0.055  0.000  0.000  0.000  0.000  0.000  0.268


 k-point    11 :    0.40000000 0.00000000 0.00000000     weight = 0.00051200

band     1 # energy    1.16136664 # occ.  2.00000000

ion      s     py     pz     px    dxy    dyz    dz2    dxz  x2-y2    tot
    1  0.187  0.018  0.009  0.053  0.000  0.000  0.000  0.000  0.000  0.266

band     2 # energy    6.36728361 # occ.  2.00000000

ion      s     py     pz     px    dxy    dyz    dz2    dxz  x2-y2    tot
    1  0.122  0.029  0.015  0.088  0.000  0.000  0.000  0.000  0.000  0.254

band     3 # energy   18.91089042 # occ.  0.00000000

ion      s     py     pz     px    dxy    dyz    dz2    dxz  x2-y2    tot
    1  0.000  0.086  0.171  0.000  0.000  0.000  0.000  0.000  0.000  0.257

band     4 # energy   18.91091219 # occ.  0.00000000

ion      s     py     pz     px    dxy    dyz    dz2    dxz  x2-y2    tot
    1  0.000  0.114  0.057  0.086  0.000  0.000  0.000  0.000  0.000  0.257

band     5 # energy   20.47284392 # occ.  0.00000000

ion      s     py     pz     px    dxy    dyz    dz2    dxz  x2-y2    tot
    1  0.000  0.083  0.127  0.005  0.000  0.000  0.000  0.000  0.000  0.215

band     6 # energy   22.55577016 # occ.  0.00000000

ion      s     py     pz     px    dxy    dyz    dz2    dxz  x2-y2    tot
    1  0.140  0.000  0.000  0.001  0.000  0.000  0.000  0.000  0.000  0.141


 k-point    12 :    0.44000000 0.00000000 0.00000000     weight = 0.00051200

band     1 # energy    2.04584051 # occ.  2.00000000

ion      s     py     pz     px    dxy    dyz    dz2    dxz  x2-y2    tot
    1  0.168  0.021  0.011  0.063  0.000  0.000  0.000  0.000  0.000  0.263

band     2 # energy    5.17719555 # occ.  2.00000000

ion      s     py     pz     px    dxy    dyz    dz2    dxz  x2-y2    tot
    1  0.143  0.026  0.013  0.079  0.000  0.000  0.000  0.000  0.000  0.260

band     3 # energy   19.07667710 # occ.  0.00000000

ion      s     py     pz     px    dxy    dyz    dz2    dxz  x2-y2    tot
    1  0.000  0.086  0.173  0.000  0.000  0.000  0.000  0.000  0.000  0.259

band     4 # energy   19.07669921 # occ.  0.00000000

ion      s     py     pz     px    dxy    dyz    dz2    dxz  x2-y2    tot
    1  0.000  0.115  0.057  0.086  0.000  0.000  0.000  0.000  0.000  0.259

band     5 # energy   20.01514766 # occ.  0.00000000

ion      s     py     pz     px    dxy    dyz    dz2    dxz  x2-y2    tot
    1  0.000  0.013  0.181  0.025  0.000  0.000  0.000  0.000  0.000  0.218

band     6 # energy   23.22848863 # occ.  0.00000000

ion      s     py     pz     px    dxy    dyz    dz2    dxz  x2-y2    tot
    1  0.214  0.000  0.002  0.007  0.000  0.000  0.000  0.000  0.000  0.223


 k-point    13 :    0.48000000 0.00000000 0.00000000     weight = 0.00051200

band     1 # energy    3.00292565 # occ.  2.00000000

ion      s     py     pz     px    dxy    dyz    dz2    dxz  x2-y2    tot
    1  0.132  0.027  0.014  0.082  0.000  0.000  0.000  0.000  0.000  0.254

band     2 # energy    4.06709687 # occ.  2.00000000

ion      s     py     pz     px    dxy    dyz    dz2    dxz  x2-y2    tot
    1  0.180  0.020  0.010  0.061  0.000  0.000  0.000  0.000  0.000  0.271

band     3 # energy   19.31468703 # occ.  0.00000000

ion      s     py     pz     px    dxy    dyz    dz2    dxz  x2-y2    tot
    1  0.000  0.093  0.184  0.000  0.000  0.000  0.000  0.000  0.000  0.277

band     4 # energy   19.31471041 # occ.  0.00000000

ion      s     py     pz     px    dxy    dyz    dz2    dxz  x2-y2    tot
    1  0.000  0.122  0.063  0.092  0.000  0.000  0.000  0.000  0.000  0.277

band     5 # energy   19.63040879 # occ.  0.00000000

ion      s     py     pz     px    dxy    dyz    dz2    dxz  x2-y2    tot
    1  0.000  0.107  0.091  0.004  0.000  0.000  0.000  0.000  0.000  0.203

band     6 # energy   19.80733195 # occ.  0.00000000

ion      s     py     pz     px    dxy    dyz    dz2    dxz  x2-y2    tot
    1  0.006  0.053  0.075  0.053  0.000  0.000  0.000  0.000  0.000  0.187


 k-point    14 :    0.04000000 0.04000000 0.00000000     weight = 0.00038400

band     1 # energy   -3.07085767 # occ.  2.00000000

ion      s     py     pz     px    dxy    dyz    dz2    dxz  x2-y2    tot
    1  0.269  0.000  0.000  0.001  0.000  0.000  0.000  0.000  0.000  0.270

band     2 # energy   20.00298263 # occ.  0.00000000

ion      s     py     pz     px    dxy    dyz    dz2    dxz  x2-y2    tot
    1  0.000  0.098  0.000  0.035  0.000  0.000  0.000  0.000  0.000  0.133

band     3 # energy   20.00298789 # occ.  0.00000000

ion      s     py     pz     px    dxy    dyz    dz2    dxz  x2-y2    tot
    1  0.000  0.013  0.088  0.032  0.000  0.000  0.000  0.000  0.000  0.132

band     4 # energy   20.21127232 # occ.  0.00000000

ion      s     py     pz     px    dxy    dyz    dz2    dxz  x2-y2    tot
    1  0.000  0.000  0.000  0.000  0.000  0.000  0.000  0.000  0.000  0.000

band     5 # energy   22.00273080 # occ.  0.00000000

ion      s     py     pz     px    dxy    dyz    dz2    dxz  x2-y2    tot
    1  0.014  0.083  0.166  0.249  0.000  0.000  0.000  0.000  0.000  0.511

band     6 # energy   23.12080190 # occ.  0.00000000

ion      s     py     pz     px    dxy    dyz    dz2    dxz  x2-y2    tot
    1  0.004  0.204  0.049  0.151  0.000  0.000  0.000  0.000  0.000  0.407


 k-point    15 :    0.08000000 0.04000000 0.00000000     weight = 0.00153600

band     1 # energy   -2.96929674 # occ.  2.00000000

ion      s     py     pz     px    dxy    dyz    dz2    dxz  x2-y2    tot
    1  0.267  0.000  0.001  0.002  0.000  0.000  0.000  0.000  0.000  0.270

band     2 # energy   18.68405180 # occ.  0.00000000

ion      s     py     pz     px    dxy    dyz    dz2    dxz  x2-y2    tot
    1  0.004  0.062  0.006  0.074  0.000  0.000  0.000  0.000  0.000  0.146

band     3 # energy   19.53624917 # occ.  0.00000000

ion      s     py     pz     px    dxy    dyz    dz2    dxz  x2-y2    tot
    1  0.000  0.015  0.117  0.044  0.000  0.000  0.000  0.000  0.000  0.176

band     4 # energy   20.24210650 # occ.  0.00000000

ion      s     py     pz     px    dxy    dyz    dz2    dxz  x2-y2    tot
    1  0.003  0.000  0.013  0.039  0.000  0.000  0.000  0.000  0.000  0.056

band     5 # energy   22.08133647 # occ.  0.00000000

ion      s     py     pz     px    dxy    dyz    dz2    dxz  x2-y2    tot
    1  0.017  0.227  0.135  0.106  0.000  0.000  0.000  0.000  0.000  0.485

band     6 # energy   24.49690518 # occ.  0.00000000

ion      s     py     pz     px    dxy    dyz    dz2    dxz  x2-y2    tot
    1  0.020  0.141  0.003  0.042  0.000  0.000  0.000  0.000  0.000  0.207


 k-point    16 :    0.12000000 0.04000000 0.00000000     weight = 0.00153600

band     1 # energy   -2.78090300 # occ.  2.00000000

ion      s     py     pz     px    dxy    dyz    dz2    dxz  x2-y2    tot
    1  0.263  0.000  0.002  0.005  0.000  0.000  0.000  0.000  0.000  0.271

band     2 # energy   17.09554393 # occ.  0.00000000

ion      s     py     pz     px    dxy    dyz    dz2    dxz  x2-y2    tot
    1  0.012  0.056  0.011  0.094  0.000  0.000  0.000  0.000  0.000  0.173

band     3 # energy   19.11523880 # occ.  0.00000000

ion      s     py     pz     px    dxy    dyz    dz2    dxz  x2-y2    tot
    1  0.000  0.017  0.136  0.051  0.000  0.000  0.000  0.000  0.000  0.204

band     4 # energy   20.07920397 # occ.  0.00000000

ion      s     py     pz     px    dxy    dyz    dz2    dxz  x2-y2    tot
    1  0.010  0.016  0.036  0.056  0.000  0.000  0.000  0.000  0.000  0.118

band     5 # energy   22.53404821 # occ.  0.00000000

ion      s     py     pz     px    dxy    dyz    dz2    dxz  x2-y2    tot
    1  0.010  0.292  0.099  0.041  0.000  0.000  0.000  0.000  0.000  0.443

band     6 # energy   23.38299071 # occ.  0.00000000

ion      s     py     pz     px    dxy    dyz    dz2    dxz  x2-y2    tot
    1  0.034  0.110  0.019  0.073  0.000  0.000  0.000  0.000  0.000  0.236


 k-point    17 :    0.16000000 0.04000000 0.00000000     weight = 0.00153600

band     1 # energy   -2.50598628 # occ.  2.00000000

ion      s     py     pz     px    dxy    dyz    dz2    dxz  x2-y2    tot
    1  0.258  0.001  0.002  0.009  0.000  0.000  0.000  0.000  0.000  0.271

band     2 # energy   15.48570965 # occ.  0.00000000

ion      s     py     pz     px    dxy    dyz    dz2    dxz  x2-y2    tot
    1  0.023  0.053  0.013  0.102  0.000  0.000  0.000  0.000  0.000  0.192

band     3 # energy   18.75533439 # occ.  0.00000000

ion      s     py     pz     px    dxy    dyz    dz2    dxz  x2-y2    tot
    1  0.000  0.019  0.149  0.056  0.000  0.000  0.000  0.000  0.000  0.224

band     4 # energy   19.82356649 # occ.  0.00000000

ion      s     py     pz     px    dxy    dyz    dz2    dxz  x2-y2    tot
    1  0.016  0.044  0.048  0.056  0.000  0.000  0.000  0.000  0.000  0.163

band     5 # energy   22.99504861 # occ.  0.00000000

ion      s     py     pz     px    dxy    dyz    dz2    dxz  x2-y2    tot
    1  0.002  0.368  0.052  0.000  0.000  0.000  0.000  0.000  0.000  0.423

band     6 # energy   23.33775683 # occ.  0.00000000

ion      s     py     pz     px    dxy    dyz    dz2    dxz  x2-y2    tot
    1  0.056  0.001  0.053  0.119  0.000  0.000  0.000  0.000  0.000  0.229


 k-point    18 :    0.20000000 0.04000000 0.00000000     weight = 0.00153600

band     1 # energy   -2.14509453 # occ.  2.00000000

ion      s     py     pz     px    dxy    dyz    dz2    dxz  x2-y2    tot
    1  0.251  0.002  0.003  0.014  0.000  0.000  0.000  0.000  0.000  0.271

band     2 # energy   13.90160031 # occ.  0.00000000

ion      s     py     pz     px    dxy    dyz    dz2    dxz  x2-y2    tot
    1  0.036  0.051  0.014  0.105  0.000  0.000  0.000  0.000  0.000  0.206

band     3 # energy   18.46274529 # occ.  0.00000000

ion      s     py     pz     px    dxy    dyz    dz2    dxz  x2-y2    tot
    1  0.000  0.020  0.159  0.060  0.000  0.000  0.000  0.000  0.000  0.238

band     4 # energy   19.57821640 # occ.  0.00000000

ion      s     py     pz     px    dxy    dyz    dz2    dxz  x2-y2    tot
    1  0.020  0.068  0.052  0.050  0.000  0.000  0.000  0.000  0.000  0.190

band     5 # energy   22.82316295 # occ.  0.00000000

ion      s     py     pz     px    dxy    dyz    dz2    dxz  x2-y2    tot
    1  0.002  0.241  0.049  0.010  0.000  0.000  0.000  0.000  0.000  0.301

band     6 # energy   23.30661779 # occ.  0.00000000

ion      s     py     pz     px    dxy    dyz    dz2    dxz  x2-y2    tot
    1  0.057  0.006  0.061  0.046  0.000  0.000  0.000  0.000  0.000  0.171


 k-point    19 :    0.24000000 0.04000000 0.00000000     weight = 0.00153600

band     1 # energy   -1.69884343 # occ.  2.00000000

ion      s     py     pz     px    dxy    dyz    dz2    dxz  x2-y2    tot
    1  0.242  0.003  0.005  0.021  0.000  0.000  0.000  0.000  0.000  0.270

band     2 # energy   12.36252801 # occ.  0.00000000

ion      s     py     pz     px    dxy    dyz    dz2    dxz  x2-y2    tot
    1  0.050  0.049  0.014  0.105  0.000  0.000  0.000  0.000  0.000  0.218

band     3 # energy   18.24018470 # occ.  0.00000000

ion      s     py     pz     px    dxy    dyz    dz2    dxz  x2-y2    tot
    1  0.000  0.021  0.166  0.062  0.000  0.000  0.000  0.000  0.000  0.249

band     4 # energy   19.38003280 # occ.  0.00000000

ion      s     py     pz     px    dxy    dyz    dz2    dxz  x2-y2    tot
    1  0.022  0.087  0.054  0.043  0.000  0.000  0.000  0.000  0.000  0.206

band     5 # energy   22.14489348 # occ.  0.00000000

ion      s     py     pz     px    dxy    dyz    dz2    dxz  x2-y2    tot
    1  0.001  0.142  0.057  0.030  0.000  0.000  0.000  0.000  0.000  0.230

band     6 # energy   23.07967516 # occ.  0.00000000

ion      s     py     pz     px    dxy    dyz    dz2    dxz  x2-y2    tot
    1  0.098  0.040  0.005  0.039  0.000  0.000  0.000  0.000  0.000  0.183


 k-point    20 :    0.28000000 0.04000000 0.00000000     weight = 0.00153600

band     1 # energy   -1.16805587 # occ.  2.00000000

ion      s     py     pz     px    dxy    dyz    dz2    dxz  x2-y2    tot
    1  0.232  0.005  0.006  0.028  0.000  0.000  0.000  0.000  0.000  0.270

band     2 # energy   10.87920843 # occ.  0.00000000

ion      s     py     pz     px    dxy    dyz    dz2    dxz  x2-y2    tot
    1  0.065  0.047  0.014  0.103  0.000  0.000  0.000  0.000  0.000  0.228

band     3 # energy   18.08910630 # occ.  0.00000000

ion      s     py     pz     px    dxy    dyz    dz2    dxz  x2-y2    tot
    1  0.000  0.021  0.170  0.064  0.000  0.000  0.000  0.000  0.000  0.256

band     4 # energy   19.24313191 # occ.  0.00000000

ion      s     py     pz     px    dxy    dyz    dz2    dxz  x2-y2    tot
    1  0.024  0.102  0.053  0.037  0.000  0.000  0.000  0.000  0.000  0.216

band     5 # energy   21.40693009 # occ.  0.00000000

ion      s     py     pz     px    dxy    dyz    dz2    dxz  x2-y2    tot
    1  0.003  0.122  0.056  0.034  0.000  0.000  0.000  0.000  0.000  0.216

band     6 # energy   22.99834357 # occ.  0.00000000

ion      s     py     pz     px    dxy    dyz    dz2    dxz  x2-y2    tot
    1  0.095  0.076  0.002  0.012  0.000  0.000  0.000  0.000  0.000  0.185


 k-point    21 :    0.32000000 0.04000000 0.00000000     weight = 0.00153600

band     1 # energy   -0.55363826 # occ.  2.00000000

ion      s     py     pz     px    dxy    dyz    dz2    dxz  x2-y2    tot
    1  0.220  0.007  0.007  0.035  0.000  0.000  0.000  0.000  0.000  0.270

band     2 # energy    9.45768850 # occ.  0.00000000

ion      s     py     pz     px    dxy    dyz    dz2    dxz  x2-y2    tot
    1  0.080  0.045  0.014  0.098  0.000  0.000  0.000  0.000  0.000  0.237

band     3 # energy   18.01037629 # occ.  0.00000000

ion      s     py     pz     px    dxy    dyz    dz2    dxz  x2-y2    tot
    1  0.000  0.022  0.173  0.065  0.000  0.000  0.000  0.000  0.000  0.260

band     4 # energy   19.17381706 # occ.  0.00000000

ion      s     py     pz     px    dxy    dyz    dz2    dxz  x2-y2    tot
    1  0.025  0.114  0.052  0.031  0.000  0.000  0.000  0.000  0.000  0.222

band     5 # energy   20.71445709 # occ.  0.00000000

ion      s     py     pz     px    dxy    dyz    dz2    dxz  x2-y2    tot
    1  0.005  0.121  0.056  0.035  0.000  0.000  0.000  0.000  0.000  0.218

band     6 # energy   22.85534999 # occ.  0.00000000

ion      s     py     pz     px    dxy    dyz    dz2    dxz  x2-y2    tot
    1  0.099  0.042  0.013  0.016  0.000  0.000  0.000  0.000  0.000  0.170


 k-point    22 :    0.36000000 0.04000000 0.00000000     weight = 0.00153600

band     1 # energy    0.14334013 # occ.  2.00000000

ion      s     py     pz     px    dxy    dyz    dz2    dxz  x2-y2    tot
    1  0.207  0.009  0.009  0.044  0.000  0.000  0.000  0.000  0.000  0.269

band     2 # energy    8.10226054 # occ.  0.86149350

ion      s     py     pz     px    dxy    dyz    dz2    dxz  x2-y2    tot
    1  0.097  0.042  0.013  0.093  0.000  0.000  0.000  0.000  0.000  0.245

band     3 # energy   18.00447114 # occ.  0.00000000

ion      s     py     pz     px    dxy    dyz    dz2    dxz  x2-y2    tot
    1  0.000  0.022  0.175  0.066  0.000  0.000  0.000  0.000  0.000  0.263

band     4 # energy   19.17513375 # occ.  0.00000000

ion      s     py     pz     px    dxy    dyz    dz2    dxz  x2-y2    tot
    1  0.025  0.123  0.049  0.025  0.000  0.000  0.000  0.000  0.000  0.222

band     5 # energy   20.08498298 # occ.  0.00000000

ion      s     py     pz     px    dxy    dyz    dz2    dxz  x2-y2    tot
    1  0.007  0.126  0.058  0.035  0.000  0.000  0.000  0.000  0.000  0.226

band     6 # energy   22.12149054 # occ.  0.00000000

ion      s     py     pz     px    dxy    dyz    dz2    dxz  x2-y2    tot
    1  0.004  0.025  0.122  0.047  0.000  0.000  0.000  0.000  0.000  0.197


 k-point    23 :    0.40000000 0.04000000 0.00000000     weight = 0.00153600

band     1 # energy    0.92162894 # occ.  2.00000000

ion      s     py     pz     px    dxy    dyz    dz2    dxz  x2-y2    tot
    1  0.192  0.011  0.011  0.053  0.000  0.000  0.000  0.000  0.000  0.267

band     2 # energy    6.81595156 # occ.  2.00305130

ion      s     py     pz     px    dxy    dyz    dz2    dxz  x2-y2    tot
    1  0.115  0.039  0.012  0.086  0.000  0.000  0.000  0.000  0.000  0.252

band     3 # energy   18.07167387 # occ.  0.00000000

ion      s     py     pz     px    dxy    dyz    dz2    dxz  x2-y2    tot
    1  0.000  0.022  0.175  0.066  0.000  0.000  0.000  0.000  0.000  0.263

band     4 # energy   19.24832858 # occ.  0.00000000

ion      s     py     pz     px    dxy    dyz    dz2    dxz  x2-y2    tot
    1  0.024  0.122  0.042  0.018  0.000  0.000  0.000  0.000  0.000  0.205

band     5 # energy   19.52516373 # occ.  0.00000000

ion      s     py     pz     px    dxy    dyz    dz2    dxz  x2-y2    tot
    1  0.010  0.143  0.062  0.035  0.000  0.000  0.000  0.000  0.000  0.251
