<?xml version="1.0" encoding="ISO-8859-1"?>
<modeling>
 <generator>
  <i name="program" type="string">vasp </i>
  <i name="version" type="string">6.4.2  </i>
  <i name="subversion" type="string">20Jul23 (build Oct 18 2023 12:49:41) complex                          parallel </i>
  <i name="platform" type="string">LinuxGNU </i>
  <i name="date" type="string">2025 04 11 </i>
  <i name="time" type="string">10:54:30 </i>
 </generator>
 <incar>
  <i type="string" name="SYSTEM">Al</i>
  <i type="int" name="NSIM">     1</i>
  <i name="ENCUT">    400.00000000</i>
  <i type="int" name="ISMEAR">    -5</i>
  <i type="int" name="LORBIT">    11</i>
 </incar>
 <primitive_cell>
  <structure name="primitive_cell" >
   <crystal>
    <varray name="basis" >
     <v>       2.85618472       0.00000000       0.00000000 </v>
     <v>       1.42809236       2.47352852       0.00000000 </v>
     <v>       1.42809236       0.82450951       2.33206506 </v>
    </varray>
    <i name="volume">     16.47570000 </i>
    <varray name="rec_basis" >
     <v>       0.35011741      -0.20214038      -0.14293483 </v>
     <v>       0.00000000       0.40428076      -0.14293483 </v>
     <v>       0.00000000       0.00000000       0.42880450 </v>
    </varray>
   </crystal>
   <varray name="positions" >
    <v>       0.00000000       0.00000000       0.00000000 </v>
   </varray>
  </structure>
  <varray name="primitive_index" >
   <v type="int" >        1 </v>
  </varray>
 </primitive_cell>
 <kpoints>
  <generation param="Gamma">
   <v type="int" name="divisions">      25       25       25 </v>
   <v name="usershift">      0.00000000       0.00000000       0.00000000 </v>
   <v name="genvec1">      0.04000000       0.00000000       0.00000000 </v>
   <v name="genvec2">      0.00000000       0.04000000      -0.00000000 </v>
   <v name="genvec3">      0.00000000       0.00000000       0.04000000 </v>
   <v name="shift">      0.00000000       0.00000000       0.00000000 </v>
  </generation>
  <varray name="kpointlist" >
   <v>       0.00000000       0.00000000       0.00000000 </v>
   <v>       0.04000000       0.00000000       0.00000000 </v>
   <v>       0.08000000       0.00000000       0.00000000 </v>
   <v>       0.12000000       0.00000000       0.00000000 </v>
   <v>       0.16000000       0.00000000       0.00000000 </v>
   <v>       0.20000000       0.00000000       0.00000000 </v>
   <v>       0.24000000       0.00000000       0.00000000 </v>
   <v>       0.28000000       0.00000000       0.00000000 </v>
   <v>       0.32000000       0.00000000       0.00000000 </v>
   <v>       0.36000000       0.00000000       0.00000000 </v>
   <v>       0.40000000       0.00000000       0.00000000 </v>
   <v>       0.44000000       0.00000000       0.00000000 </v>
   <v>       0.48000000       0.00000000       0.00000000 </v>
   <v>       0.04000000       0.04000000       0.00000000 </v>
   <v>       0.08000000       0.04000000       0.00000000 </v>
   <v>       0.12000000       0.04000000       0.00000000 </v>
   <v>       0.16000000       0.04000000       0.00000000 </v>
   <v>       0.20000000       0.04000000       0.00000000 </v>
   <v>       0.24000000       0.04000000       0.00000000 </v>
   <v>       0.28000000       0.04000000       0.00000000 </v>
   <v>       0.32000000       0.04000000       0.00000000 </v>
   <v>       0.36000000       0.04000000       0.00000000 </v>
   <v>       0.40000000       0.04000000       0.00000000 </v>
   <v>       0.44000000       0.04000000       0.00000000 </v>
   <v>       0.48000000       0.04000000       0.00000000 </v>
   <v>      -0.48000000       0.04000000       0.00000000 </v>
   <v>      -0.44000000       0.04000000       0.00000000 </v>
   <v>      -0.40000000       0.04000000       0.00000000 </v>
   <v>      -0.36000000       0.04000000       0.00000000 </v>
   <v>      -0.32000000       0.04000000       0.00000000 </v>
   <v>      -0.28000000       0.04000000       0.00000000 </v>
   <v>      -0.24000000       0.04000000       0.00000000 </v>
   <v>      -0.20000000       0.04000000       0.00000000 </v>
   <v>      -0.16000000       0.04000000       0.00000000 </v>
   <v>      -0.12000000       0.04000000       0.00000000 </v>
   <v>      -0.08000000       0.04000000       0.00000000 </v>
   <v>      -0.04000000       0.04000000       0.00000000 </v>
   <v>       0.08000000       0.08000000       0.00000000 </v>
   <v>       0.12000000       0.08000000       0.00000000 </v>
   <v>       0.16000000       0.08000000       0.00000000 </v>
   <v>       0.20000000       0.08000000       0.00000000 </v>
   <v>       0.24000000       0.08000000       0.00000000 </v>
   <v>       0.28000000       0.08000000       0.00000000 </v>
   <v>       0.32000000       0.08000000       0.00000000 </v>
   <v>       0.36000000       0.08000000       0.00000000 </v>
   <v>       0.40000000       0.08000000       0.00000000 </v>
   <v>       0.44000000       0.08000000       0.00000000 </v>
   <v>       0.48000000       0.08000000       0.00000000 </v>
   <v>      -0.48000000       0.08000000       0.00000000 </v>
   <v>      -0.44000000       0.08000000       0.00000000 </v>
   <v>      -0.40000000       0.08000000       0.00000000 </v>
   <v>      -0.36000000       0.08000000       0.00000000 </v>
   <v>      -0.32000000       0.08000000       0.00000000 </v>
   <v>      -0.28000000       0.08000000       0.00000000 </v>
   <v>      -0.24000000       0.08000000       0.00000000 </v>
   <v>      -0.20000000       0.08000000       0.00000000 </v>
   <v>      -0.16000000       0.08000000       0.00000000 </v>
   <v>      -0.12000000       0.08000000       0.00000000 </v>
   <v>      -0.08000000       0.08000000       0.00000000 </v>
   <v>       0.12000000       0.12000000       0.00000000 </v>
   <v>       0.16000000       0.12000000       0.00000000 </v>
   <v>       0.20000000       0.12000000       0.00000000 </v>
   <v>       0.24000000       0.12000000       0.00000000 </v>
   <v>       0.28000000       0.12000000       0.00000000 </v>
   <v>       0.32000000       0.12000000       0.00000000 </v>
   <v>       0.36000000       0.12000000       0.00000000 </v>
   <v>       0.40000000       0.12000000       0.00000000 </v>
   <v>       0.44000000       0.12000000       0.00000000 </v>
   <v>       0.48000000       0.12000000       0.00000000 </v>
   <v>      -0.48000000       0.12000000       0.00000000 </v>
   <v>      -0.44000000       0.12000000       0.00000000 </v>
   <v>      -0.40000000       0.12000000       0.00000000 </v>
   <v>      -0.36000000       0.12000000       0.00000000 </v>
   <v>      -0.32000000       0.12000000       0.00000000 </v>
   <v>      -0.28000000       0.12000000       0.00000000 </v>
   <v>      -0.24000000       0.12000000       0.00000000 </v>
   <v>      -0.20000000       0.12000000       0.00000000 </v>
   <v>      -0.16000000       0.12000000       0.00000000 </v>
   <v>      -0.12000000       0.12000000       0.00000000 </v>
   <v>       0.16000000       0.16000000       0.00000000 </v>
   <v>       0.20000000       0.16000000       0.00000000 </v>
   <v>       0.24000000       0.16000000       0.00000000 </v>
   <v>       0.28000000       0.16000000       0.00000000 </v>
   <v>       0.32000000       0.16000000       0.00000000 </v>
   <v>       0.36000000       0.16000000       0.00000000 </v>
   <v>       0.40000000       0.16000000       0.00000000 </v>
   <v>       0.44000000       0.16000000       0.00000000 </v>
   <v>       0.48000000       0.16000000       0.00000000 </v>
   <v>      -0.48000000       0.16000000       0.00000000 </v>
   <v>      -0.44000000       0.16000000       0.00000000 </v>
   <v>      -0.40000000       0.16000000       0.00000000 </v>
   <v>      -0.36000000       0.16000000       0.00000000 </v>
   <v>      -0.32000000       0.16000000       0.00000000 </v>
   <v>      -0.28000000       0.16000000       0.00000000 </v>
   <v>      -0.24000000       0.16000000       0.00000000 </v>
   <v>      -0.20000000       0.16000000       0.00000000 </v>
   <v>      -0.16000000       0.16000000       0.00000000 </v>
   <v>       0.20000000       0.20000000       0.00000000 </v>
   <v>       0.24000000       0.20000000       0.00000000 </v>
   <v>       0.28000000       0.20000000       0.00000000 </v>
   <v>       0.32000000       0.20000000       0.00000000 </v>
   <v>       0.36000000       0.20000000       0.00000000 </v>
   <v>       0.40000000       0.20000000       0.00000000 </v>
   <v>       0.44000000       0.20000000       0.00000000 </v>
   <v>       0.48000000       0.20000000       0.00000000 </v>
   <v>      -0.48000000       0.20000000       0.00000000 </v>
   <v>      -0.44000000       0.20000000       0.00000000 </v>
   <v>      -0.40000000       0.20000000       0.00000000 </v>
   <v>      -0.36000000       0.20000000       0.00000000 </v>
   <v>      -0.32000000       0.20000000       0.00000000 </v>
   <v>      -0.28000000       0.20000000       0.00000000 </v>
   <v>      -0.24000000       0.20000000       0.00000000 </v>
   <v>      -0.20000000       0.20000000       0.00000000 </v>
   <v>       0.24000000       0.24000000       0.00000000 </v>
   <v>       0.28000000       0.24000000       0.00000000 </v>
   <v>       0.32000000       0.24000000       0.00000000 </v>
   <v>       0.36000000       0.24000000       0.00000000 </v>
   <v>       0.40000000       0.24000000       0.00000000 </v>
   <v>       0.44000000       0.24000000       0.00000000 </v>
   <v>       0.48000000       0.24000000       0.00000000 </v>
   <v>      -0.48000000       0.24000000       0.00000000 </v>
   <v>      -0.44000000       0.24000000       0.00000000 </v>
   <v>      -0.40000000       0.24000000       0.00000000 </v>
   <v>      -0.36000000       0.24000000       0.00000000 </v>
   <v>      -0.32000000       0.24000000       0.00000000 </v>
   <v>      -0.28000000       0.24000000       0.00000000 </v>
   <v>      -0.24000000       0.24000000       0.00000000 </v>
   <v>       0.28000000       0.28000000       0.00000000 </v>
   <v>       0.32000000       0.28000000       0.00000000 </v>
   <v>       0.36000000       0.28000000       0.00000000 </v>
   <v>       0.40000000       0.28000000       0.00000000 </v>
   <v>       0.44000000       0.28000000       0.00000000 </v>
   <v>       0.48000000       0.28000000       0.00000000 </v>
   <v>      -0.48000000       0.28000000       0.00000000 </v>
   <v>      -0.44000000       0.28000000       0.00000000 </v>
   <v>      -0.40000000       0.28000000       0.00000000 </v>
   <v>      -0.36000000       0.28000000       0.00000000 </v>
   <v>      -0.32000000       0.28000000       0.00000000 </v>
   <v>      -0.28000000       0.28000000       0.00000000 </v>
   <v>       0.32000000       0.32000000       0.00000000 </v>
   <v>       0.36000000       0.32000000       0.00000000 </v>
   <v>       0.40000000       0.32000000       0.00000000 </v>
   <v>       0.44000000       0.32000000       0.00000000 </v>
   <v>       0.48000000       0.32000000       0.00000000 </v>
   <v>      -0.48000000       0.32000000       0.00000000 </v>
   <v>      -0.44000000       0.32000000       0.00000000 </v>
   <v>      -0.40000000       0.32000000       0.00000000 </v>
   <v>      -0.36000000       0.32000000       0.00000000 </v>
   <v>      -0.32000000       0.32000000       0.00000000 </v>
   <v>       0.36000000       0.36000000       0.00000000 </v>
   <v>       0.40000000       0.36000000       0.00000000 </v>
   <v>       0.44000000       0.36000000       0.00000000 </v>
   <v>       0.48000000       0.36000000       0.00000000 </v>
   <v>      -0.48000000       0.36000000       0.00000000 </v>
   <v>      -0.44000000       0.36000000       0.00000000 </v>
   <v>      -0.40000000       0.36000000       0.00000000 </v>
   <v>      -0.36000000       0.36000000       0.00000000 </v>
   <v>       0.40000000       0.40000000       0.00000000 </v>
   <v>       0.44000000       0.40000000       0.00000000 </v>
   <v>       0.48000000       0.40000000       0.00000000 </v>
   <v>      -0.48000000       0.40000000       0.00000000 </v>
   <v>      -0.44000000       0.40000000       0.00000000 </v>
   <v>      -0.40000000       0.40000000       0.00000000 </v>
   <v>       0.44000000       0.44000000       0.00000000 </v>
   <v>       0.48000000       0.44000000       0.00000000 </v>
   <v>      -0.48000000       0.44000000       0.00000000 </v>
   <v>      -0.44000000       0.44000000       0.00000000 </v>
   <v>       0.48000000       0.48000000       0.00000000 </v>
   <v>      -0.48000000       0.48000000       0.00000000 </v>
   <v>       0.12000000       0.08000000       0.04000000 </v>
   <v>       0.16000000       0.08000000       0.04000000 </v>
   <v>       0.20000000       0.08000000       0.04000000 </v>
   <v>       0.24000000       0.08000000       0.04000000 </v>
   <v>       0.28000000       0.08000000       0.04000000 </v>
   <v>       0.32000000       0.08000000       0.04000000 </v>
   <v>       0.36000000       0.08000000       0.04000000 </v>
   <v>       0.40000000       0.08000000       0.04000000 </v>
   <v>       0.44000000       0.08000000       0.04000000 </v>
   <v>       0.48000000       0.08000000       0.04000000 </v>
   <v>      -0.48000000       0.08000000       0.04000000 </v>
   <v>       0.16000000       0.12000000       0.04000000 </v>
   <v>       0.20000000       0.12000000       0.04000000 </v>
   <v>       0.24000000       0.12000000       0.04000000 </v>
   <v>       0.28000000       0.12000000       0.04000000 </v>
   <v>       0.32000000       0.12000000       0.04000000 </v>
   <v>       0.36000000       0.12000000       0.04000000 </v>
   <v>       0.40000000       0.12000000       0.04000000 </v>
   <v>       0.44000000       0.12000000       0.04000000 </v>
   <v>       0.48000000       0.12000000       0.04000000 </v>
   <v>      -0.48000000       0.12000000       0.04000000 </v>
   <v>      -0.44000000       0.12000000       0.04000000 </v>
   <v>      -0.40000000       0.12000000       0.04000000 </v>
   <v>      -0.36000000       0.12000000       0.04000000 </v>
   <v>      -0.32000000       0.12000000       0.04000000 </v>
   <v>      -0.28000000       0.12000000       0.04000000 </v>
   <v>      -0.24000000       0.12000000       0.04000000 </v>
   <v>      -0.20000000       0.12000000       0.04000000 </v>
   <v>      -0.16000000       0.12000000       0.04000000 </v>
   <v>      -0.12000000       0.12000000       0.04000000 </v>
   <v>      -0.08000000       0.12000000       0.04000000 </v>
   <v>       0.20000000       0.16000000       0.04000000 </v>
   <v>       0.24000000       0.16000000       0.04000000 </v>
   <v>       0.28000000       0.16000000       0.04000000 </v>
   <v>       0.32000000       0.16000000       0.04000000 </v>
   <v>       0.36000000       0.16000000       0.04000000 </v>
   <v>       0.40000000       0.16000000       0.04000000 </v>
   <v>       0.44000000       0.16000000       0.04000000 </v>
   <v>       0.48000000       0.16000000       0.04000000 </v>
   <v>      -0.48000000       0.16000000       0.04000000 </v>
   <v>      -0.44000000       0.16000000       0.04000000 </v>
   <v>      -0.40000000       0.16000000       0.04000000 </v>
   <v>      -0.36000000       0.16000000       0.04000000 </v>
   <v>      -0.32000000       0.16000000       0.04000000 </v>
   <v>      -0.28000000       0.16000000       0.04000000 </v>
   <v>      -0.24000000       0.16000000       0.04000000 </v>
   <v>      -0.20000000       0.16000000       0.04000000 </v>
   <v>      -0.16000000       0.16000000       0.04000000 </v>
   <v>      -0.12000000       0.16000000       0.04000000 </v>
   <v>       0.24000000       0.20000000       0.04000000 </v>
   <v>       0.28000000       0.20000000       0.04000000 </v>
   <v>       0.32000000       0.20000000       0.04000000 </v>
   <v>       0.36000000       0.20000000       0.04000000 </v>
   <v>       0.40000000       0.20000000       0.04000000 </v>
   <v>       0.44000000       0.20000000       0.04000000 </v>
   <v>       0.48000000       0.20000000       0.04000000 </v>
   <v>      -0.48000000       0.20000000       0.04000000 </v>
   <v>      -0.44000000       0.20000000       0.04000000 </v>
   <v>      -0.40000000       0.20000000       0.04000000 </v>
   <v>      -0.36000000       0.20000000       0.04000000 </v>
   <v>      -0.32000000       0.20000000       0.04000000 </v>
   <v>      -0.28000000       0.20000000       0.04000000 </v>
   <v>      -0.24000000       0.20000000       0.04000000 </v>
   <v>      -0.20000000       0.20000000       0.04000000 </v>
   <v>      -0.16000000       0.20000000       0.04000000 </v>
   <v>       0.28000000       0.24000000       0.04000000 </v>
   <v>       0.32000000       0.24000000       0.04000000 </v>
   <v>       0.36000000       0.24000000       0.04000000 </v>
   <v>       0.40000000       0.24000000       0.04000000 </v>
   <v>       0.44000000       0.24000000       0.04000000 </v>
   <v>       0.48000000       0.24000000       0.04000000 </v>
   <v>      -0.48000000       0.24000000       0.04000000 </v>
   <v>      -0.44000000       0.24000000       0.04000000 </v>
   <v>      -0.40000000       0.24000000       0.04000000 </v>
   <v>      -0.36000000       0.24000000       0.04000000 </v>
   <v>      -0.32000000       0.24000000       0.04000000 </v>
   <v>      -0.28000000       0.24000000       0.04000000 </v>
   <v>      -0.24000000       0.24000000       0.04000000 </v>
   <v>      -0.20000000       0.24000000       0.04000000 </v>
   <v>       0.32000000       0.28000000       0.04000000 </v>
   <v>       0.36000000       0.28000000       0.04000000 </v>
   <v>       0.40000000       0.28000000       0.04000000 </v>
   <v>       0.44000000       0.28000000       0.04000000 </v>
   <v>       0.48000000       0.28000000       0.04000000 </v>
   <v>      -0.48000000       0.28000000       0.04000000 </v>
   <v>      -0.44000000       0.28000000       0.04000000 </v>
   <v>      -0.40000000       0.28000000       0.04000000 </v>
   <v>      -0.36000000       0.28000000       0.04000000 </v>
   <v>      -0.32000000       0.28000000       0.04000000 </v>
   <v>      -0.28000000       0.28000000       0.04000000 </v>
   <v>      -0.24000000       0.28000000       0.04000000 </v>
   <v>       0.36000000       0.32000000       0.04000000 </v>
   <v>       0.40000000       0.32000000       0.04000000 </v>
   <v>       0.44000000       0.32000000       0.04000000 </v>
   <v>       0.48000000       0.32000000       0.04000000 </v>
   <v>      -0.48000000       0.32000000       0.04000000 </v>
   <v>      -0.44000000       0.32000000       0.04000000 </v>
   <v>      -0.40000000       0.32000000       0.04000000 </v>
   <v>      -0.36000000       0.32000000       0.04000000 </v>
   <v>      -0.32000000       0.32000000       0.04000000 </v>
   <v>      -0.28000000       0.32000000       0.04000000 </v>
   <v>       0.40000000       0.36000000       0.04000000 </v>
   <v>       0.44000000       0.36000000       0.04000000 </v>
   <v>       0.48000000       0.36000000       0.04000000 </v>
   <v>      -0.48000000       0.36000000       0.04000000 </v>
   <v>      -0.44000000       0.36000000       0.04000000 </v>
   <v>      -0.40000000       0.36000000       0.04000000 </v>
   <v>      -0.36000000       0.36000000       0.04000000 </v>
   <v>      -0.32000000       0.36000000       0.04000000 </v>
   <v>       0.44000000       0.40000000       0.04000000 </v>
   <v>       0.48000000       0.40000000       0.04000000 </v>
   <v>      -0.48000000       0.40000000       0.04000000 </v>
   <v>      -0.44000000       0.40000000       0.04000000 </v>
   <v>      -0.40000000       0.40000000       0.04000000 </v>
   <v>      -0.36000000       0.40000000       0.04000000 </v>
   <v>       0.48000000       0.44000000       0.04000000 </v>
   <v>      -0.48000000       0.44000000       0.04000000 </v>
   <v>      -0.44000000       0.44000000       0.04000000 </v>
   <v>      -0.40000000       0.44000000       0.04000000 </v>
   <v>      -0.48000000       0.48000000       0.04000000 </v>
   <v>      -0.44000000       0.48000000       0.04000000 </v>
   <v>       0.24000000       0.16000000       0.08000000 </v>
   <v>       0.28000000       0.16000000       0.08000000 </v>
   <v>       0.32000000       0.16000000       0.08000000 </v>
   <v>       0.36000000       0.16000000       0.08000000 </v>
   <v>       0.40000000       0.16000000       0.08000000 </v>
   <v>       0.44000000       0.16000000       0.08000000 </v>
   <v>       0.48000000       0.16000000       0.08000000 </v>
   <v>      -0.48000000       0.16000000       0.08000000 </v>
   <v>      -0.44000000       0.16000000       0.08000000 </v>
   <v>       0.28000000       0.20000000       0.08000000 </v>
   <v>       0.32000000       0.20000000       0.08000000 </v>
   <v>       0.36000000       0.20000000       0.08000000 </v>
   <v>       0.40000000       0.20000000       0.08000000 </v>
   <v>       0.44000000       0.20000000       0.08000000 </v>
   <v>       0.48000000       0.20000000       0.08000000 </v>
   <v>      -0.48000000       0.20000000       0.08000000 </v>
   <v>      -0.44000000       0.20000000       0.08000000 </v>
   <v>      -0.40000000       0.20000000       0.08000000 </v>
   <v>      -0.36000000       0.20000000       0.08000000 </v>
   <v>      -0.32000000       0.20000000       0.08000000 </v>
   <v>      -0.28000000       0.20000000       0.08000000 </v>
   <v>      -0.24000000       0.20000000       0.08000000 </v>
   <v>      -0.20000000       0.20000000       0.08000000 </v>
   <v>      -0.16000000       0.20000000       0.08000000 </v>
   <v>      -0.12000000       0.20000000       0.08000000 </v>
   <v>       0.32000000       0.24000000       0.08000000 </v>
   <v>       0.36000000       0.24000000       0.08000000 </v>
   <v>       0.40000000       0.24000000       0.08000000 </v>
   <v>       0.44000000       0.24000000       0.08000000 </v>
   <v>       0.48000000       0.24000000       0.08000000 </v>
   <v>      -0.48000000       0.24000000       0.08000000 </v>
   <v>      -0.44000000       0.24000000       0.08000000 </v>
   <v>      -0.40000000       0.24000000       0.08000000 </v>
   <v>      -0.36000000       0.24000000       0.08000000 </v>
   <v>      -0.32000000       0.24000000       0.08000000 </v>
   <v>      -0.28000000       0.24000000       0.08000000 </v>
   <v>      -0.24000000       0.24000000       0.08000000 </v>
   <v>      -0.20000000       0.24000000       0.08000000 </v>
   <v>      -0.16000000       0.24000000       0.08000000 </v>
   <v>       0.36000000       0.28000000       0.08000000 </v>
   <v>       0.40000000       0.28000000       0.08000000 </v>
   <v>       0.44000000       0.28000000       0.08000000 </v>
   <v>       0.48000000       0.28000000       0.08000000 </v>
   <v>      -0.48000000       0.28000000       0.08000000 </v>
   <v>      -0.44000000       0.28000000       0.08000000 </v>
   <v>      -0.40000000       0.28000000       0.08000000 </v>
   <v>      -0.36000000       0.28000000       0.08000000 </v>
   <v>      -0.32000000       0.28000000       0.08000000 </v>
   <v>      -0.28000000       0.28000000       0.08000000 </v>
   <v>      -0.24000000       0.28000000       0.08000000 </v>
   <v>      -0.20000000       0.28000000       0.08000000 </v>
   <v>       0.40000000       0.32000000       0.08000000 </v>
   <v>       0.44000000       0.32000000       0.08000000 </v>
   <v>       0.48000000       0.32000000       0.08000000 </v>
   <v>      -0.48000000       0.32000000       0.08000000 </v>
   <v>      -0.44000000       0.32000000       0.08000000 </v>
   <v>      -0.40000000       0.32000000       0.08000000 </v>
   <v>      -0.36000000       0.32000000       0.08000000 </v>
   <v>      -0.32000000       0.32000000       0.08000000 </v>
   <v>      -0.28000000       0.32000000       0.08000000 </v>
   <v>      -0.24000000       0.32000000       0.08000000 </v>
   <v>       0.44000000       0.36000000       0.08000000 </v>
   <v>       0.48000000       0.36000000       0.08000000 </v>
   <v>      -0.48000000       0.36000000       0.08000000 </v>
   <v>      -0.44000000       0.36000000       0.08000000 </v>
   <v>      -0.40000000       0.36000000       0.08000000 </v>
   <v>      -0.36000000       0.36000000       0.08000000 </v>
   <v>      -0.32000000       0.36000000       0.08000000 </v>
   <v>      -0.28000000       0.36000000       0.08000000 </v>
   <v>       0.48000000       0.40000000       0.08000000 </v>
   <v>      -0.48000000       0.40000000       0.08000000 </v>
   <v>      -0.44000000       0.40000000       0.08000000 </v>
   <v>      -0.40000000       0.40000000       0.08000000 </v>
   <v>      -0.36000000       0.40000000       0.08000000 </v>
   <v>      -0.32000000       0.40000000       0.08000000 </v>
   <v>      -0.48000000       0.44000000       0.08000000 </v>
   <v>      -0.44000000       0.44000000       0.08000000 </v>
   <v>      -0.40000000       0.44000000       0.08000000 </v>
   <v>      -0.36000000       0.44000000       0.08000000 </v>
   <v>      -0.44000000       0.48000000       0.08000000 </v>
   <v>      -0.40000000       0.48000000       0.08000000 </v>
   <v>       0.36000000       0.24000000       0.12000000 </v>
   <v>       0.40000000       0.24000000       0.12000000 </v>
   <v>       0.44000000       0.24000000       0.12000000 </v>
   <v>       0.48000000       0.24000000       0.12000000 </v>
   <v>      -0.48000000       0.24000000       0.12000000 </v>
   <v>      -0.44000000       0.24000000       0.12000000 </v>
   <v>      -0.40000000       0.24000000       0.12000000 </v>
   <v>       0.40000000       0.28000000       0.12000000 </v>
   <v>       0.44000000       0.28000000       0.12000000 </v>
   <v>       0.48000000       0.28000000       0.12000000 </v>
   <v>      -0.48000000       0.28000000       0.12000000 </v>
   <v>      -0.44000000       0.28000000       0.12000000 </v>
   <v>      -0.40000000       0.28000000       0.12000000 </v>
   <v>      -0.36000000       0.28000000       0.12000000 </v>
   <v>      -0.32000000       0.28000000       0.12000000 </v>
   <v>      -0.28000000       0.28000000       0.12000000 </v>
   <v>      -0.24000000       0.28000000       0.12000000 </v>
   <v>      -0.20000000       0.28000000       0.12000000 </v>
   <v>      -0.16000000       0.28000000       0.12000000 </v>
   <v>       0.44000000       0.32000000       0.12000000 </v>
   <v>       0.48000000       0.32000000       0.12000000 </v>
   <v>      -0.48000000       0.32000000       0.12000000 </v>
   <v>      -0.44000000       0.32000000       0.12000000 </v>
   <v>      -0.40000000       0.32000000       0.12000000 </v>
   <v>      -0.36000000       0.32000000       0.12000000 </v>
   <v>      -0.32000000       0.32000000       0.12000000 </v>
   <v>      -0.28000000       0.32000000       0.12000000 </v>
   <v>      -0.24000000       0.32000000       0.12000000 </v>
   <v>      -0.20000000       0.32000000       0.12000000 </v>
   <v>       0.48000000       0.36000000       0.12000000 </v>
   <v>      -0.48000000       0.36000000       0.12000000 </v>
   <v>      -0.44000000       0.36000000       0.12000000 </v>
   <v>      -0.40000000       0.36000000       0.12000000 </v>
   <v>      -0.36000000       0.36000000       0.12000000 </v>
   <v>      -0.32000000       0.36000000       0.12000000 </v>
   <v>      -0.28000000       0.36000000       0.12000000 </v>
   <v>      -0.24000000       0.36000000       0.12000000 </v>
   <v>      -0.48000000       0.40000000       0.12000000 </v>
   <v>      -0.44000000       0.40000000       0.12000000 </v>
   <v>      -0.40000000       0.40000000       0.12000000 </v>
   <v>      -0.36000000       0.40000000       0.12000000 </v>
   <v>      -0.32000000       0.40000000       0.12000000 </v>
   <v>      -0.28000000       0.40000000       0.12000000 </v>
   <v>      -0.44000000       0.44000000       0.12000000 </v>
   <v>      -0.40000000       0.44000000       0.12000000 </v>
   <v>      -0.36000000       0.44000000       0.12000000 </v>
   <v>      -0.32000000       0.44000000       0.12000000 </v>
   <v>      -0.40000000       0.48000000       0.12000000 </v>
   <v>      -0.36000000       0.48000000       0.12000000 </v>
   <v>       0.48000000       0.32000000       0.16000000 </v>
   <v>      -0.48000000       0.32000000       0.16000000 </v>
   <v>      -0.44000000       0.32000000       0.16000000 </v>
   <v>      -0.40000000       0.32000000       0.16000000 </v>
   <v>      -0.36000000       0.32000000       0.16000000 </v>
   <v>      -0.48000000       0.36000000       0.16000000 </v>
   <v>      -0.44000000       0.36000000       0.16000000 </v>
   <v>      -0.40000000       0.36000000       0.16000000 </v>
   <v>      -0.36000000       0.36000000       0.16000000 </v>
   <v>      -0.32000000       0.36000000       0.16000000 </v>
   <v>      -0.28000000       0.36000000       0.16000000 </v>
   <v>      -0.24000000       0.36000000       0.16000000 </v>
   <v>      -0.20000000       0.36000000       0.16000000 </v>
   <v>      -0.44000000       0.40000000       0.16000000 </v>
   <v>      -0.40000000       0.40000000       0.16000000 </v>
   <v>      -0.36000000       0.40000000       0.16000000 </v>
   <v>      -0.32000000       0.40000000       0.16000000 </v>
   <v>      -0.28000000       0.40000000       0.16000000 </v>
   <v>      -0.24000000       0.40000000       0.16000000 </v>
   <v>      -0.40000000       0.44000000       0.16000000 </v>
   <v>      -0.36000000       0.44000000       0.16000000 </v>
   <v>      -0.32000000       0.44000000       0.16000000 </v>
   <v>      -0.28000000       0.44000000       0.16000000 </v>
   <v>      -0.36000000       0.48000000       0.16000000 </v>
   <v>      -0.32000000       0.48000000       0.16000000 </v>
   <v>      -0.40000000       0.40000000       0.20000000 </v>
   <v>      -0.36000000       0.40000000       0.20000000 </v>
   <v>      -0.32000000       0.40000000       0.20000000 </v>
   <v>      -0.36000000       0.44000000       0.20000000 </v>
   <v>      -0.32000000       0.44000000       0.20000000 </v>
   <v>      -0.28000000       0.44000000       0.20000000 </v>
   <v>      -0.24000000       0.44000000       0.20000000 </v>
   <v>      -0.32000000       0.48000000       0.20000000 </v>
   <v>      -0.28000000       0.48000000       0.20000000 </v>
   <v>      -0.28000000       0.48000000       0.24000000 </v>
  </varray>
  <varray name="weights" >
   <v>       0.00006400 </v>
   <v>       0.00051200 </v>
   <v>       0.00051200 </v>
   <v>       0.00051200 </v>
   <v>       0.00051200 </v>
   <v>       0.00051200 </v>
   <v>       0.00051200 </v>
   <v>       0.00051200 </v>
   <v>       0.00051200 </v>
   <v>       0.00051200 </v>
   <v>       0.00051200 </v>
   <v>       0.00051200 </v>
   <v>       0.00051200 </v>
   <v>       0.00038400 </v>
   <v>       0.00153600 </v>
   <v>       0.00153600 </v>
   <v>       0.00153600 </v>
   <v>       0.00153600 </v>
   <v>       0.00153600 </v>
   <v>       0.00153600 </v>
   <v>       0.00153600 </v>
   <v>       0.00153600 </v>
   <v>       0.00153600 </v>
   <v>       0.00153600 </v>
   <v>       0.00153600 </v>
   <v>       0.00153600 </v>
   <v>       0.00153600 </v>
   <v>       0.00153600 </v>
   <v>       0.00153600 </v>
   <v>       0.00153600 </v>
   <v>       0.00153600 </v>
   <v>       0.00153600 </v>
   <v>       0.00153600 </v>
   <v>       0.00153600 </v>
   <v>       0.00153600 </v>
   <v>       0.00153600 </v>
   <v>       0.00076800 </v>
   <v>       0.00038400 </v>
   <v>       0.00153600 </v>
   <v>       0.00153600 </v>
   <v>       0.00153600 </v>
   <v>       0.00153600 </v>
   <v>       0.00153600 </v>
   <v>       0.00153600 </v>
   <v>       0.00153600 </v>
   <v>       0.00153600 </v>
   <v>       0.00153600 </v>
   <v>       0.00153600 </v>
   <v>       0.00153600 </v>
   <v>       0.00153600 </v>
   <v>       0.00153600 </v>
   <v>       0.00153600 </v>
   <v>       0.00153600 </v>
   <v>       0.00153600 </v>
   <v>       0.00153600 </v>
   <v>       0.00153600 </v>
   <v>       0.00153600 </v>
   <v>       0.00153600 </v>
   <v>       0.00076800 </v>
   <v>       0.00038400 </v>
   <v>       0.00153600 </v>
   <v>       0.00153600 </v>
   <v>       0.00153600 </v>
   <v>       0.00153600 </v>
   <v>       0.00153600 </v>
   <v>       0.00153600 </v>
   <v>       0.00153600 </v>
   <v>       0.00153600 </v>
   <v>       0.00153600 </v>
   <v>       0.00153600 </v>
   <v>       0.00153600 </v>
   <v>       0.00153600 </v>
   <v>       0.00153600 </v>
   <v>       0.00153600 </v>
   <v>       0.00153600 </v>
   <v>       0.00153600 </v>
   <v>       0.00153600 </v>
   <v>       0.00153600 </v>
   <v>       0.00076800 </v>
   <v>       0.00038400 </v>
   <v>       0.00153600 </v>
   <v>       0.00153600 </v>
   <v>       0.00153600 </v>
   <v>       0.00153600 </v>
   <v>       0.00153600 </v>
   <v>       0.00153600 </v>
   <v>       0.00153600 </v>
   <v>       0.00153600 </v>
   <v>       0.00153600 </v>
   <v>       0.00153600 </v>
   <v>       0.00153600 </v>
   <v>       0.00153600 </v>
   <v>       0.00153600 </v>
   <v>       0.00153600 </v>
   <v>       0.00153600 </v>
   <v>       0.00153600 </v>
   <v>       0.00076800 </v>
   <v>       0.00038400 </v>
   <v>       0.00153600 </v>
   <v>       0.00153600 </v>
   <v>       0.00153600 </v>
   <v>       0.00153600 </v>
   <v>       0.00153600 </v>
   <v>       0.00153600 </v>
   <v>       0.00153600 </v>
   <v>       0.00153600 </v>
   <v>       0.00153600 </v>
   <v>       0.00153600 </v>
   <v>       0.00153600 </v>
   <v>       0.00153600 </v>
   <v>       0.00153600 </v>
   <v>       0.00153600 </v>
   <v>       0.00076800 </v>
   <v>       0.00038400 </v>
   <v>       0.00153600 </v>
   <v>       0.00153600 </v>
   <v>       0.00153600 </v>
   <v>       0.00153600 </v>
   <v>       0.00153600 </v>
   <v>       0.00153600 </v>
   <v>       0.00153600 </v>
   <v>       0.00153600 </v>
   <v>       0.00153600 </v>
   <v>       0.00153600 </v>
   <v>       0.00153600 </v>
   <v>       0.00153600 </v>
   <v>       0.00076800 </v>
   <v>       0.00038400 </v>
   <v>       0.00153600 </v>
   <v>       0.00153600 </v>
   <v>       0.00153600 </v>
   <v>       0.00153600 </v>
   <v>       0.00153600 </v>
   <v>       0.00153600 </v>
   <v>       0.00153600 </v>
   <v>       0.00153600 </v>
   <v>       0.00153600 </v>
   <v>       0.00153600 </v>
   <v>       0.00076800 </v>
   <v>       0.00038400 </v>
   <v>       0.00153600 </v>
   <v>       0.00153600 </v>
   <v>       0.00153600 </v>
   <v>       0.00153600 </v>
   <v>       0.00153600 </v>
   <v>       0.00153600 </v>
   <v>       0.00153600 </v>
   <v>       0.00153600 </v>
   <v>       0.00076800 </v>
   <v>       0.00038400 </v>
   <v>       0.00153600 </v>
   <v>       0.00153600 </v>
   <v>       0.00153600 </v>
   <v>       0.00153600 </v>
   <v>       0.00153600 </v>
   <v>       0.00153600 </v>
   <v>       0.00076800 </v>
   <v>       0.00038400 </v>
   <v>       0.00153600 </v>
   <v>       0.00153600 </v>
   <v>       0.00153600 </v>
   <v>       0.00153600 </v>
   <v>       0.00076800 </v>
   <v>       0.00038400 </v>
   <v>       0.00153600 </v>
   <v>       0.00153600 </v>
   <v>       0.00076800 </v>
   <v>       0.00038400 </v>
   <v>       0.00076800 </v>
   <v>       0.00153600 </v>
   <v>       0.00307200 </v>
   <v>       0.00307200 </v>
   <v>       0.00307200 </v>
   <v>       0.00307200 </v>
   <v>       0.00307200 </v>
   <v>       0.00307200 </v>
   <v>       0.00307200 </v>
   <v>       0.00307200 </v>
   <v>       0.00307200 </v>
   <v>       0.00307200 </v>
   <v>       0.00153600 </v>
   <v>       0.00307200 </v>
   <v>       0.00307200 </v>
   <v>       0.00307200 </v>
   <v>       0.00307200 </v>
   <v>       0.00307200 </v>
   <v>       0.00307200 </v>
   <v>       0.00307200 </v>
   <v>       0.00307200 </v>
   <v>       0.00307200 </v>
   <v>       0.00307200 </v>
   <v>       0.00307200 </v>
   <v>       0.00307200 </v>
   <v>       0.00307200 </v>
   <v>       0.00307200 </v>
   <v>       0.00307200 </v>
   <v>       0.00307200 </v>
   <v>       0.00307200 </v>
   <v>       0.00307200 </v>
   <v>       0.00153600 </v>
   <v>       0.00153600 </v>
   <v>       0.00307200 </v>
   <v>       0.00307200 </v>
   <v>       0.00307200 </v>
   <v>       0.00307200 </v>
   <v>       0.00307200 </v>
   <v>       0.00307200 </v>
   <v>       0.00307200 </v>
   <v>       0.00307200 </v>
   <v>       0.00307200 </v>
   <v>       0.00307200 </v>
   <v>       0.00307200 </v>
   <v>       0.00307200 </v>
   <v>       0.00307200 </v>
   <v>       0.00307200 </v>
   <v>       0.00307200 </v>
   <v>       0.00307200 </v>
   <v>       0.00153600 </v>
   <v>       0.00153600 </v>
   <v>       0.00307200 </v>
   <v>       0.00307200 </v>
   <v>       0.00307200 </v>
   <v>       0.00307200 </v>
   <v>       0.00307200 </v>
   <v>       0.00307200 </v>
   <v>       0.00307200 </v>
   <v>       0.00307200 </v>
   <v>       0.00307200 </v>
   <v>       0.00307200 </v>
   <v>       0.00307200 </v>
   <v>       0.00307200 </v>
   <v>       0.00307200 </v>
   <v>       0.00307200 </v>
   <v>       0.00153600 </v>
   <v>       0.00153600 </v>
   <v>       0.00307200 </v>
   <v>       0.00307200 </v>
   <v>       0.00307200 </v>
   <v>       0.00307200 </v>
   <v>       0.00307200 </v>
   <v>       0.00307200 </v>
   <v>       0.00307200 </v>
   <v>       0.00307200 </v>
   <v>       0.00307200 </v>
   <v>       0.00307200 </v>
   <v>       0.00307200 </v>
   <v>       0.00307200 </v>
   <v>       0.00153600 </v>
   <v>       0.00153600 </v>
   <v>       0.00307200 </v>
   <v>       0.00307200 </v>
   <v>       0.00307200 </v>
   <v>       0.00307200 </v>
   <v>       0.00307200 </v>
   <v>       0.00307200 </v>
   <v>       0.00307200 </v>
   <v>       0.00307200 </v>
   <v>       0.00307200 </v>
   <v>       0.00307200 </v>
   <v>       0.00153600 </v>
   <v>       0.00153600 </v>
   <v>       0.00307200 </v>
   <v>       0.00307200 </v>
   <v>       0.00307200 </v>
   <v>       0.00307200 </v>
   <v>       0.00307200 </v>
   <v>       0.00307200 </v>
   <v>       0.00307200 </v>
   <v>       0.00307200 </v>
   <v>       0.00153600 </v>
   <v>       0.00153600 </v>
   <v>       0.00307200 </v>
   <v>       0.00307200 </v>
   <v>       0.00307200 </v>
   <v>       0.00307200 </v>
   <v>       0.00307200 </v>
   <v>       0.00307200 </v>
   <v>       0.00153600 </v>
   <v>       0.00153600 </v>
   <v>       0.00307200 </v>
   <v>       0.00307200 </v>
   <v>       0.00307200 </v>
   <v>       0.00307200 </v>
   <v>       0.00153600 </v>
   <v>       0.00153600 </v>
   <v>       0.00307200 </v>
   <v>       0.00307200 </v>
   <v>       0.00153600 </v>
   <v>       0.00153600 </v>
   <v>       0.00153600 </v>
   <v>       0.00153600 </v>
   <v>       0.00307200 </v>
   <v>       0.00307200 </v>
   <v>       0.00307200 </v>
   <v>       0.00307200 </v>
   <v>       0.00307200 </v>
   <v>       0.00307200 </v>
   <v>       0.00307200 </v>
   <v>       0.00307200 </v>
   <v>       0.00153600 </v>
   <v>       0.00307200 </v>
   <v>       0.00307200 </v>
   <v>       0.00307200 </v>
   <v>       0.00307200 </v>
   <v>       0.00307200 </v>
   <v>       0.00307200 </v>
   <v>       0.00307200 </v>
   <v>       0.00307200 </v>
   <v>       0.00307200 </v>
   <v>       0.00307200 </v>
   <v>       0.00307200 </v>
   <v>       0.00307200 </v>
   <v>       0.00307200 </v>
   <v>       0.00307200 </v>
   <v>       0.00153600 </v>
   <v>       0.00153600 </v>
   <v>       0.00307200 </v>
   <v>       0.00307200 </v>
   <v>       0.00307200 </v>
   <v>       0.00307200 </v>
   <v>       0.00307200 </v>
   <v>       0.00307200 </v>
   <v>       0.00307200 </v>
   <v>       0.00307200 </v>
   <v>       0.00307200 </v>
   <v>       0.00307200 </v>
   <v>       0.00307200 </v>
   <v>       0.00307200 </v>
   <v>       0.00153600 </v>
   <v>       0.00153600 </v>
   <v>       0.00307200 </v>
   <v>       0.00307200 </v>
   <v>       0.00307200 </v>
   <v>       0.00307200 </v>
   <v>       0.00307200 </v>
   <v>       0.00307200 </v>
   <v>       0.00307200 </v>
   <v>       0.00307200 </v>
   <v>       0.00307200 </v>
   <v>       0.00307200 </v>
   <v>       0.00153600 </v>
   <v>       0.00153600 </v>
   <v>       0.00307200 </v>
   <v>       0.00307200 </v>
   <v>       0.00307200 </v>
   <v>       0.00307200 </v>
   <v>       0.00307200 </v>
   <v>       0.00307200 </v>
   <v>       0.00307200 </v>
   <v>       0.00307200 </v>
   <v>       0.00153600 </v>
   <v>       0.00153600 </v>
   <v>       0.00307200 </v>
   <v>       0.00307200 </v>
   <v>       0.00307200 </v>
   <v>       0.00307200 </v>
   <v>       0.00307200 </v>
   <v>       0.00307200 </v>
   <v>       0.00153600 </v>
   <v>       0.00153600 </v>
   <v>       0.00307200 </v>
   <v>       0.00307200 </v>
   <v>       0.00307200 </v>
   <v>       0.00307200 </v>
   <v>       0.00153600 </v>
   <v>       0.00153600 </v>
   <v>       0.00307200 </v>
   <v>       0.00307200 </v>
   <v>       0.00153600 </v>
   <v>       0.00153600 </v>
   <v>       0.00153600 </v>
   <v>       0.00153600 </v>
   <v>       0.00307200 </v>
   <v>       0.00307200 </v>
   <v>       0.00307200 </v>
   <v>       0.00307200 </v>
   <v>       0.00307200 </v>
   <v>       0.00307200 </v>
   <v>       0.00153600 </v>
   <v>       0.00307200 </v>
   <v>       0.00307200 </v>
   <v>       0.00307200 </v>
   <v>       0.00307200 </v>
   <v>       0.00307200 </v>
   <v>       0.00307200 </v>
   <v>       0.00307200 </v>
   <v>       0.00307200 </v>
   <v>       0.00307200 </v>
   <v>       0.00307200 </v>
   <v>       0.00153600 </v>
   <v>       0.00153600 </v>
   <v>       0.00307200 </v>
   <v>       0.00307200 </v>
   <v>       0.00307200 </v>
   <v>       0.00307200 </v>
   <v>       0.00307200 </v>
   <v>       0.00307200 </v>
   <v>       0.00307200 </v>
   <v>       0.00307200 </v>
   <v>       0.00153600 </v>
   <v>       0.00153600 </v>
   <v>       0.00307200 </v>
   <v>       0.00307200 </v>
   <v>       0.00307200 </v>
   <v>       0.00307200 </v>
   <v>       0.00307200 </v>
   <v>       0.00307200 </v>
   <v>       0.00153600 </v>
   <v>       0.00153600 </v>
   <v>       0.00307200 </v>
   <v>       0.00307200 </v>
   <v>       0.00307200 </v>
   <v>       0.00307200 </v>
   <v>       0.00153600 </v>
   <v>       0.00153600 </v>
   <v>       0.00307200 </v>
   <v>       0.00307200 </v>
   <v>       0.00153600 </v>
   <v>       0.00153600 </v>
   <v>       0.00153600 </v>
   <v>       0.00153600 </v>
   <v>       0.00307200 </v>
   <v>       0.00307200 </v>
   <v>       0.00307200 </v>
   <v>       0.00307200 </v>
   <v>       0.00153600 </v>
   <v>       0.00307200 </v>
   <v>       0.00307200 </v>
   <v>       0.00307200 </v>
   <v>       0.00307200 </v>
   <v>       0.00307200 </v>
   <v>       0.00307200 </v>
   <v>       0.00153600 </v>
   <v>       0.00153600 </v>
   <v>       0.00307200 </v>
   <v>       0.00307200 </v>
   <v>       0.00307200 </v>
   <v>       0.00307200 </v>
   <v>       0.00153600 </v>
   <v>       0.00153600 </v>
   <v>       0.00307200 </v>
   <v>       0.00307200 </v>
   <v>       0.00153600 </v>
   <v>       0.00153600 </v>
   <v>       0.00153600 </v>
   <v>       0.00153600 </v>
   <v>       0.00307200 </v>
   <v>       0.00307200 </v>
   <v>       0.00153600 </v>
   <v>       0.00307200 </v>
   <v>       0.00307200 </v>
   <v>       0.00153600 </v>
   <v>       0.00153600 </v>
   <v>       0.00153600 </v>
   <v>       0.00153600 </v>
  </varray>
  <varray name="tetrahedronlist"  type="int" >
   <v type="int" >       48        2        3       15       37 </v>
   <v type="int" >       48       15       36       37      170 </v>
   <v type="int" >       24       36       36       37      170 </v>
   <v type="int" >       48        3       15       36       37 </v>
   <v type="int" >       48       36       59      170      171 </v>
   <v type="int" >       48       35       36       59      171 </v>
   <v type="int" >       24       36       36       59      170 </v>
   <v type="int" >       48       35       58      171      172 </v>
   <v type="int" >       48       34       35       58      172 </v>
   <v type="int" >       48       35       58       59      171 </v>
   <v type="int" >       48       34       57      172      173 </v>
   <v type="int" >       48       33       34       57      173 </v>
   <v type="int" >       48       34       57       58      172 </v>
   <v type="int" >       48       33       56      173      174 </v>
   <v type="int" >       48       32       33       56      174 </v>
   <v type="int" >       48       33       56       57      173 </v>
   <v type="int" >       48       32       55      174      175 </v>
   <v type="int" >       48       31       32       55      175 </v>
   <v type="int" >       48       32       55       56      174 </v>
   <v type="int" >       48       31       54      175      176 </v>
   <v type="int" >       48       30       31       54      176 </v>
   <v type="int" >       48       31       54       55      175 </v>
   <v type="int" >       48       30       53      176      177 </v>
   <v type="int" >       48       29       30       53      177 </v>
   <v type="int" >       48       30       53       54      176 </v>
   <v type="int" >       48       29       52      177      178 </v>
   <v type="int" >       48       28       29       52      178 </v>
   <v type="int" >       48       29       52       53      177 </v>
   <v type="int" >       48       28       51      178      179 </v>
   <v type="int" >       48       27       28       51      179 </v>
   <v type="int" >       48       28       51       52      178 </v>
   <v type="int" >       48       27       50      179      180 </v>
   <v type="int" >       48       26       27       50      180 </v>
   <v type="int" >       48       27       50       51      179 </v>
   <v type="int" >       48       26       49      180      180 </v>
   <v type="int" >       48       25       26       49      180 </v>
   <v type="int" >       48       26       49       50      180 </v>
   <v type="int" >       48       25       48      179      180 </v>
   <v type="int" >       48       24       25       48      179 </v>
   <v type="int" >       48       25       48       49      180 </v>
   <v type="int" >       48       24       47      178      179 </v>
   <v type="int" >       48       23       24       47      178 </v>
   <v type="int" >       48       24       47       48      179 </v>
   <v type="int" >       48       23       46      177      178 </v>
   <v type="int" >       48       22       23       46      177 </v>
   <v type="int" >       48       23       46       47      178 </v>
   <v type="int" >       48       22       45      176      177 </v>
   <v type="int" >       48       21       22       45      176 </v>
   <v type="int" >       48       22       45       46      177 </v>
   <v type="int" >       48       21       44      175      176 </v>
   <v type="int" >       48       20       21       44      175 </v>
   <v type="int" >       48       21       44       45      176 </v>
   <v type="int" >       48       20       43      174      175 </v>
   <v type="int" >       48       19       20       43      174 </v>
   <v type="int" >       48       20       43       44      175 </v>
   <v type="int" >       48       19       42      173      174 </v>
   <v type="int" >       48       18       19       42      173 </v>
   <v type="int" >       48       19       42       43      174 </v>
   <v type="int" >       48       18       41      172      173 </v>
   <v type="int" >       48       17       18       41      172 </v>
   <v type="int" >       48       18       41       42      173 </v>
   <v type="int" >       48       17       40      171      172 </v>
   <v type="int" >       48       16       17       40      171 </v>
   <v type="int" >       48       17       40       41      172 </v>
   <v type="int" >       48       16       39      170      171 </v>
   <v type="int" >       48       15       16       39      170 </v>
   <v type="int" >       48       16       39       40      171 </v>
   <v type="int" >       24       15       15       38      170 </v>
   <v type="int" >       24       14       15       15       38 </v>
   <v type="int" >       48       15       38       39      170 </v>
   <v type="int" >       24       14       15       15       37 </v>
   <v type="int" >       48        2       14       15       37 </v>
   <v type="int" >       48       15       16       36      170 </v>
   <v type="int" >       48        3       15       16       36 </v>
   <v type="int" >       48       39      170      171      181 </v>
   <v type="int" >       24      170      171      171      181 </v>
   <v type="int" >       24       59      170      171      171 </v>
   <v type="int" >       48       16       36      170      171 </v>
   <v type="int" >       48      171      181      182      200 </v>
   <v type="int" >       48      171      172      182      200 </v>
   <v type="int" >       48       58      171      172      200 </v>
   <v type="int" >       24      171      171      181      200 </v>
   <v type="int" >       24       59      171      171      200 </v>
   <v type="int" >       48       58       59      171      200 </v>
   <v type="int" >       48      172      182      183      199 </v>
   <v type="int" >       48      172      173      183      199 </v>
   <v type="int" >       48       57      172      173      199 </v>
   <v type="int" >       48      172      182      199      200 </v>
   <v type="int" >       48       58      172      199      200 </v>
   <v type="int" >       48       57       58      172      199 </v>
   <v type="int" >       48      173      183      184      198 </v>
   <v type="int" >       48      173      174      184      198 </v>
   <v type="int" >       48       56      173      174      198 </v>
   <v type="int" >       48      173      183      198      199 </v>
   <v type="int" >       48       57      173      198      199 </v>
   <v type="int" >       48       56       57      173      198 </v>
   <v type="int" >       48      174      184      185      197 </v>
   <v type="int" >       48      174      175      185      197 </v>
   <v type="int" >       48       55      174      175      197 </v>
   <v type="int" >       48      174      184      197      198 </v>
   <v type="int" >       48       56      174      197      198 </v>
   <v type="int" >       48       55       56      174      197 </v>
   <v type="int" >       48      175      185      186      196 </v>
   <v type="int" >       48      175      176      186      196 </v>
   <v type="int" >       48       54      175      176      196 </v>
   <v type="int" >       48      175      185      196      197 </v>
   <v type="int" >       48       55      175      196      197 </v>
   <v type="int" >       48       54       55      175      196 </v>
   <v type="int" >       48      176      186      187      195 </v>
   <v type="int" >       48      176      177      187      195 </v>
   <v type="int" >       48       53      176      177      195 </v>
   <v type="int" >       48      176      186      195      196 </v>
   <v type="int" >       48       54      176      195      196 </v>
   <v type="int" >       48       53       54      176      195 </v>
   <v type="int" >       48      177      187      188      194 </v>
   <v type="int" >       48      177      178      188      194 </v>
   <v type="int" >       48       52      177      178      194 </v>
   <v type="int" >       48      177      187      194      195 </v>
   <v type="int" >       48       53      177      194      195 </v>
   <v type="int" >       48       52       53      177      194 </v>
   <v type="int" >       48      178      188      189      193 </v>
   <v type="int" >       48      178      179      189      193 </v>
   <v type="int" >       48       51      178      179      193 </v>
   <v type="int" >       48      178      188      193      194 </v>
   <v type="int" >       48       52      178      193      194 </v>
   <v type="int" >       48       51       52      178      193 </v>
   <v type="int" >       48      179      189      190      192 </v>
   <v type="int" >       48      179      180      190      192 </v>
   <v type="int" >       48       50      179      180      192 </v>
   <v type="int" >       48      179      189      192      193 </v>
   <v type="int" >       48       51      179      192      193 </v>
   <v type="int" >       48       50       51      179      192 </v>
   <v type="int" >       48      180      190      191      191 </v>
   <v type="int" >       24      180      180      191      191 </v>
   <v type="int" >       48       49      180      180      191 </v>
   <v type="int" >       48      180      190      191      192 </v>
   <v type="int" >       48       50      180      191      192 </v>
   <v type="int" >       48       49       50      180      191 </v>
   <v type="int" >       48       48      179      180      190 </v>
   <v type="int" >       48       49      180      190      191 </v>
   <v type="int" >       48       48       49      180      190 </v>
   <v type="int" >       48       47      178      179      189 </v>
   <v type="int" >       48       48      179      189      190 </v>
   <v type="int" >       48       47       48      179      189 </v>
   <v type="int" >       48       46      177      178      188 </v>
   <v type="int" >       48       47      178      188      189 </v>
   <v type="int" >       48       46       47      178      188 </v>
   <v type="int" >       48       45      176      177      187 </v>
   <v type="int" >       48       46      177      187      188 </v>
   <v type="int" >       48       45       46      177      187 </v>
   <v type="int" >       48       44      175      176      186 </v>
   <v type="int" >       48       45      176      186      187 </v>
   <v type="int" >       48       44       45      176      186 </v>
   <v type="int" >       48       43      174      175      185 </v>
   <v type="int" >       48       44      175      185      186 </v>
   <v type="int" >       48       43       44      175      185 </v>
   <v type="int" >       48       42      173      174      184 </v>
   <v type="int" >       48       43      174      184      185 </v>
   <v type="int" >       48       42       43      174      184 </v>
   <v type="int" >       48       41      172      173      183 </v>
   <v type="int" >       48       42      173      183      184 </v>
   <v type="int" >       48       41       42      173      183 </v>
   <v type="int" >       48       40      171      172      182 </v>
   <v type="int" >       48       41      172      182      183 </v>
   <v type="int" >       48       40       41      172      182 </v>
   <v type="int" >       48       40      171      181      182 </v>
   <v type="int" >       48       39       40      171      181 </v>
   <v type="int" >       24       39       39      170      181 </v>
   <v type="int" >       24       38       39       39      170 </v>
   <v type="int" >       24       15       15       37      170 </v>
   <v type="int" >       48       39       40       61      181 </v>
   <v type="int" >       48       61      181      182      201 </v>
   <v type="int" >       24      181      182      182      201 </v>
   <v type="int" >       24      181      182      182      200 </v>
   <v type="int" >       48       40       61      181      182 </v>
   <v type="int" >       48      182      201      202      291 </v>
   <v type="int" >       48      182      183      202      291 </v>
   <v type="int" >       48      182      183      199      291 </v>
   <v type="int" >       24      182      182      201      291 </v>
   <v type="int" >       24      182      182      200      291 </v>
   <v type="int" >       48      182      199      200      291 </v>
   <v type="int" >       48      183      202      203      292 </v>
   <v type="int" >       48      183      184      203      292 </v>
   <v type="int" >       48      183      184      198      292 </v>
   <v type="int" >       48      183      202      291      292 </v>
   <v type="int" >       48      183      199      291      292 </v>
   <v type="int" >       48      183      198      199      292 </v>
   <v type="int" >       48      184      203      204      293 </v>
   <v type="int" >       48      184      185      204      293 </v>
   <v type="int" >       48      184      185      197      293 </v>
   <v type="int" >       48      184      203      292      293 </v>
   <v type="int" >       48      184      198      292      293 </v>
   <v type="int" >       48      184      197      198      293 </v>
   <v type="int" >       48      185      204      205      294 </v>
   <v type="int" >       48      185      186      205      294 </v>
   <v type="int" >       48      185      186      196      294 </v>
   <v type="int" >       48      185      204      293      294 </v>
   <v type="int" >       48      185      197      293      294 </v>
   <v type="int" >       48      185      196      197      294 </v>
   <v type="int" >       48      186      205      206      295 </v>
   <v type="int" >       48      186      187      206      295 </v>
   <v type="int" >       48      186      187      195      295 </v>
   <v type="int" >       48      186      205      294      295 </v>
   <v type="int" >       48      186      196      294      295 </v>
   <v type="int" >       48      186      195      196      295 </v>
   <v type="int" >       48      187      206      207      296 </v>
   <v type="int" >       48      187      188      207      296 </v>
   <v type="int" >       48      187      188      194      296 </v>
   <v type="int" >       48      187      206      295      296 </v>
   <v type="int" >       48      187      195      295      296 </v>
   <v type="int" >       48      187      194      195      296 </v>
   <v type="int" >       48      188      207      208      297 </v>
   <v type="int" >       48      188      189      208      297 </v>
   <v type="int" >       48      188      189      193      297 </v>
   <v type="int" >       48      188      207      296      297 </v>
   <v type="int" >       48      188      194      296      297 </v>
   <v type="int" >       48      188      193      194      297 </v>
   <v type="int" >       48      189      208      209      298 </v>
   <v type="int" >       48      189      190      209      298 </v>
   <v type="int" >       48      189      190      192      298 </v>
   <v type="int" >       48      189      208      297      298 </v>
   <v type="int" >       48      189      193      297      298 </v>
   <v type="int" >       48      189      192      193      298 </v>
   <v type="int" >       48      190      209      210      299 </v>
   <v type="int" >       48      190      191      210      299 </v>
   <v type="int" >       48      190      191      191      299 </v>
   <v type="int" >       48      190      209      298      299 </v>
   <v type="int" >       48      190      192      298      299 </v>
   <v type="int" >       48      190      191      192      299 </v>
   <v type="int" >       48      191      210      211      299 </v>
   <v type="int" >       48      191      192      211      299 </v>
   <v type="int" >       48      191      210      299      299 </v>
   <v type="int" >       24      191      191      299      299 </v>
   <v type="int" >       48      192      211      212      298 </v>
   <v type="int" >       48      192      193      212      298 </v>
   <v type="int" >       48      192      211      298      299 </v>
   <v type="int" >       48      193      212      213      297 </v>
   <v type="int" >       48      193      194      213      297 </v>
   <v type="int" >       48      193      212      297      298 </v>
   <v type="int" >       48      194      213      214      296 </v>
   <v type="int" >       48      194      195      214      296 </v>
   <v type="int" >       48      194      213      296      297 </v>
   <v type="int" >       48      195      214      215      295 </v>
   <v type="int" >       48      195      196      215      295 </v>
   <v type="int" >       48      195      214      295      296 </v>
   <v type="int" >       48      196      215      216      294 </v>
   <v type="int" >       48      196      197      216      294 </v>
   <v type="int" >       48      196      215      294      295 </v>
   <v type="int" >       48      197      216      217      293 </v>
   <v type="int" >       48      197      198      217      293 </v>
   <v type="int" >       48      197      216      293      294 </v>
   <v type="int" >       48      198      217      218      292 </v>
   <v type="int" >       48      198      199      218      292 </v>
   <v type="int" >       48      198      217      292      293 </v>
   <v type="int" >       24      199      199      218      291 </v>
   <v type="int" >       24      199      199      200      291 </v>
   <v type="int" >       48      199      218      291      292 </v>
   <v type="int" >       48       16       17       35      171 </v>
   <v type="int" >       48       16       35       36      171 </v>
   <v type="int" >       48       61       62       81      201 </v>
   <v type="int" >       48       61       62      182      201 </v>
   <v type="int" >       48       40       61       62      182 </v>
   <v type="int" >       48       81      201      202      219 </v>
   <v type="int" >       24      201      202      202      219 </v>
   <v type="int" >       24      201      202      202      291 </v>
   <v type="int" >       48       62       81      201      202 </v>
   <v type="int" >       48       62      182      201      202 </v>
   <v type="int" >       48      202      219      220      300 </v>
   <v type="int" >       48      202      203      220      300 </v>
   <v type="int" >       48      202      203      292      300 </v>
   <v type="int" >       24      202      202      219      300 </v>
   <v type="int" >       24      202      202      291      300 </v>
   <v type="int" >       48      202      291      292      300 </v>
   <v type="int" >       48      203      220      221      301 </v>
   <v type="int" >       48      203      204      221      301 </v>
   <v type="int" >       48      203      204      293      301 </v>
   <v type="int" >       48      203      220      300      301 </v>
   <v type="int" >       48      203      292      300      301 </v>
   <v type="int" >       48      203      292      293      301 </v>
   <v type="int" >       48      204      221      222      302 </v>
   <v type="int" >       48      204      205      222      302 </v>
   <v type="int" >       48      204      205      294      302 </v>
   <v type="int" >       48      204      221      301      302 </v>
   <v type="int" >       48      204      293      301      302 </v>
   <v type="int" >       48      204      293      294      302 </v>
   <v type="int" >       48      205      222      223      303 </v>
   <v type="int" >       48      205      206      223      303 </v>
   <v type="int" >       48      205      206      295      303 </v>
   <v type="int" >       48      205      222      302      303 </v>
   <v type="int" >       48      205      294      302      303 </v>
   <v type="int" >       48      205      294      295      303 </v>
   <v type="int" >       48      206      223      224      304 </v>
   <v type="int" >       48      206      207      224      304 </v>
   <v type="int" >       48      206      207      296      304 </v>
   <v type="int" >       48      206      223      303      304 </v>
   <v type="int" >       48      206      295      303      304 </v>
   <v type="int" >       48      206      295      296      304 </v>
   <v type="int" >       48      207      224      225      305 </v>
   <v type="int" >       48      207      208      225      305 </v>
   <v type="int" >       48      207      208      297      305 </v>
   <v type="int" >       48      207      224      304      305 </v>
   <v type="int" >       48      207      296      304      305 </v>
   <v type="int" >       48      207      296      297      305 </v>
   <v type="int" >       48      208      225      226      306 </v>
   <v type="int" >       48      208      209      226      306 </v>
   <v type="int" >       48      208      209      298      306 </v>
   <v type="int" >       48      208      225      305      306 </v>
   <v type="int" >       48      208      297      305      306 </v>
   <v type="int" >       48      208      297      298      306 </v>
   <v type="int" >       48      209      226      227      307 </v>
   <v type="int" >       48      209      210      227      307 </v>
   <v type="int" >       48      209      210      299      307 </v>
   <v type="int" >       48      209      226      306      307 </v>
   <v type="int" >       48      209      298      306      307 </v>
   <v type="int" >       48      209      298      299      307 </v>
   <v type="int" >       48      210      227      228      308 </v>
   <v type="int" >       48      210      211      228      308 </v>
   <v type="int" >       48      210      211      299      308 </v>
   <v type="int" >       48      210      227      307      308 </v>
   <v type="int" >       48      210      299      307      308 </v>
   <v type="int" >       48      210      299      299      308 </v>
   <v type="int" >       48      211      228      229      309 </v>
   <v type="int" >       48      211      212      229      309 </v>
   <v type="int" >       48      211      212      298      309 </v>
   <v type="int" >       48      211      228      308      309 </v>
   <v type="int" >       48      211      299      308      309 </v>
   <v type="int" >       48      211      298      299      309 </v>
   <v type="int" >       48      212      229      230      310 </v>
   <v type="int" >       48      212      213      230      310 </v>
   <v type="int" >       48      212      213      297      310 </v>
   <v type="int" >       48      212      229      309      310 </v>
   <v type="int" >       48      212      298      309      310 </v>
   <v type="int" >       48      212      297      298      310 </v>
   <v type="int" >       48      213      230      231      311 </v>
   <v type="int" >       48      213      214      231      311 </v>
   <v type="int" >       48      213      214      296      311 </v>
   <v type="int" >       48      213      230      310      311 </v>
   <v type="int" >       48      213      297      310      311 </v>
   <v type="int" >       48      213      296      297      311 </v>
   <v type="int" >       48      214      231      232      312 </v>
   <v type="int" >       48      214      215      232      312 </v>
   <v type="int" >       48      214      215      295      312 </v>
   <v type="int" >       48      214      231      311      312 </v>
   <v type="int" >       48      214      296      311      312 </v>
   <v type="int" >       48      214      295      296      312 </v>
   <v type="int" >       48      215      232      233      313 </v>
   <v type="int" >       48      215      216      233      313 </v>
   <v type="int" >       48      215      216      294      313 </v>
   <v type="int" >       48      215      232      312      313 </v>
   <v type="int" >       48      215      295      312      313 </v>
   <v type="int" >       48      215      294      295      313 </v>
   <v type="int" >       48      216      233      234      314 </v>
   <v type="int" >       48      216      217      234      314 </v>
   <v type="int" >       48      216      217      293      314 </v>
   <v type="int" >       48      216      233      313      314 </v>
   <v type="int" >       48      216      294      313      314 </v>
   <v type="int" >       48      216      293      294      314 </v>
   <v type="int" >       24      217      217      234      315 </v>
   <v type="int" >       24      217      217      218      315 </v>
   <v type="int" >       48      217      218      292      315 </v>
   <v type="int" >       48      217      234      314      315 </v>
   <v type="int" >       48      217      293      314      315 </v>
   <v type="int" >       48      217      292      293      315 </v>
   <v type="int" >       24      218      292      292      315 </v>
   <v type="int" >       24      218      291      292      292 </v>
   <v type="int" >       48       17       18       34      172 </v>
   <v type="int" >       48       17       34       35      172 </v>
   <v type="int" >       48       17       35      171      172 </v>
   <v type="int" >       48       81       82       99      219 </v>
   <v type="int" >       48       81       82      202      219 </v>
   <v type="int" >       48       62       81       82      202 </v>
   <v type="int" >       48       99      219      220      235 </v>
   <v type="int" >       24      219      220      220      235 </v>
   <v type="int" >       24      219      220      220      300 </v>
   <v type="int" >       48       82       99      219      220 </v>
   <v type="int" >       48       82      202      219      220 </v>
   <v type="int" >       48      220      235      236      316 </v>
   <v type="int" >       48      220      221      236      316 </v>
   <v type="int" >       48      220      221      301      316 </v>
   <v type="int" >       24      220      220      235      316 </v>
   <v type="int" >       24      220      220      300      316 </v>
   <v type="int" >       48      220      300      301      316 </v>
   <v type="int" >       48      221      236      237      317 </v>
   <v type="int" >       48      221      222      237      317 </v>
   <v type="int" >       48      221      222      302      317 </v>
   <v type="int" >       48      221      236      316      317 </v>
   <v type="int" >       48      221      301      316      317 </v>
   <v type="int" >       48      221      301      302      317 </v>
   <v type="int" >       48      222      237      238      318 </v>
   <v type="int" >       48      222      223      238      318 </v>
   <v type="int" >       48      222      223      303      318 </v>
   <v type="int" >       48      222      237      317      318 </v>
   <v type="int" >       48      222      302      317      318 </v>
   <v type="int" >       48      222      302      303      318 </v>
   <v type="int" >       48      223      238      239      319 </v>
   <v type="int" >       48      223      224      239      319 </v>
   <v type="int" >       48      223      224      304      319 </v>
   <v type="int" >       48      223      238      318      319 </v>
   <v type="int" >       48      223      303      318      319 </v>
   <v type="int" >       48      223      303      304      319 </v>
   <v type="int" >       48      224      239      240      320 </v>
   <v type="int" >       48      224      225      240      320 </v>
   <v type="int" >       48      224      225      305      320 </v>
   <v type="int" >       48      224      239      319      320 </v>
   <v type="int" >       48      224      304      319      320 </v>
   <v type="int" >       48      224      304      305      320 </v>
   <v type="int" >       48      225      240      241      321 </v>
   <v type="int" >       48      225      226      241      321 </v>
   <v type="int" >       48      225      226      306      321 </v>
   <v type="int" >       48      225      240      320      321 </v>
   <v type="int" >       48      225      305      320      321 </v>
   <v type="int" >       48      225      305      306      321 </v>
   <v type="int" >       48      226      241      242      322 </v>
   <v type="int" >       48      226      227      242      322 </v>
   <v type="int" >       48      226      227      307      322 </v>
   <v type="int" >       48      226      241      321      322 </v>
   <v type="int" >       48      226      306      321      322 </v>
   <v type="int" >       48      226      306      307      322 </v>
   <v type="int" >       48      227      242      243      323 </v>
   <v type="int" >       48      227      228      243      323 </v>
   <v type="int" >       48      227      228      308      323 </v>
   <v type="int" >       48      227      242      322      323 </v>
   <v type="int" >       48      227      307      322      323 </v>
   <v type="int" >       48      227      307      308      323 </v>
   <v type="int" >       48      228      243      244      324 </v>
   <v type="int" >       48      228      229      244      324 </v>
   <v type="int" >       48      228      229      309      324 </v>
   <v type="int" >       48      228      243      323      324 </v>
   <v type="int" >       48      228      308      323      324 </v>
   <v type="int" >       48      228      308      309      324 </v>
   <v type="int" >       48      229      244      245      325 </v>
   <v type="int" >       48      229      230      245      325 </v>
   <v type="int" >       48      229      230      310      325 </v>
   <v type="int" >       48      229      244      324      325 </v>
   <v type="int" >       48      229      309      324      325 </v>
   <v type="int" >       48      229      309      310      325 </v>
   <v type="int" >       48      230      245      246      326 </v>
   <v type="int" >       48      230      231      246      326 </v>
   <v type="int" >       48      230      231      311      326 </v>
   <v type="int" >       48      230      245      325      326 </v>
   <v type="int" >       48      230      310      325      326 </v>
   <v type="int" >       48      230      310      311      326 </v>
   <v type="int" >       48      231      246      247      327 </v>
   <v type="int" >       48      231      232      247      327 </v>
   <v type="int" >       48      231      232      312      327 </v>
   <v type="int" >       48      231      246      326      327 </v>
   <v type="int" >       48      231      311      326      327 </v>
   <v type="int" >       48      231      311      312      327 </v>
   <v type="int" >       48      232      247      248      328 </v>
   <v type="int" >       48      232      233      248      328 </v>
   <v type="int" >       48      232      233      313      328 </v>
   <v type="int" >       48      232      247      327      328 </v>
   <v type="int" >       48      232      312      327      328 </v>
   <v type="int" >       48      232      312      313      328 </v>
   <v type="int" >       24      233      233      248      329 </v>
   <v type="int" >       24      233      233      234      329 </v>
   <v type="int" >       48      233      234      314      329 </v>
   <v type="int" >       48      233      248      328      329 </v>
   <v type="int" >       48      233      313      328      329 </v>
   <v type="int" >       48      233      313      314      329 </v>
   <v type="int" >       24      234      314      314      329 </v>
   <v type="int" >       24      234      314      314      315 </v>
   <v type="int" >       48       18       19       33      173 </v>
   <v type="int" >       48       18       33       34      173 </v>
   <v type="int" >       48       18       34      172      173 </v>
   <v type="int" >       48       99      100      115      235 </v>
   <v type="int" >       48       99      100      220      235 </v>
   <v type="int" >       48       82       99      100      220 </v>
   <v type="int" >       48      115      235      236      249 </v>
   <v type="int" >       24      235      236      236      249 </v>
   <v type="int" >       24      235      236      236      316 </v>
   <v type="int" >       48      100      115      235      236 </v>
   <v type="int" >       48      100      220      235      236 </v>
   <v type="int" >       48      236      249      250      330 </v>
   <v type="int" >       48      236      237      250      330 </v>
   <v type="int" >       48      236      237      317      330 </v>
   <v type="int" >       24      236      236      249      330 </v>
   <v type="int" >       24      236      236      316      330 </v>
   <v type="int" >       48      236      316      317      330 </v>
   <v type="int" >       48      237      250      251      331 </v>
   <v type="int" >       48      237      238      251      331 </v>
   <v type="int" >       48      237      238      318      331 </v>
   <v type="int" >       48      237      250      330      331 </v>
   <v type="int" >       48      237      317      330      331 </v>
   <v type="int" >       48      237      317      318      331 </v>
   <v type="int" >       48      238      251      252      332 </v>
   <v type="int" >       48      238      239      252      332 </v>
   <v type="int" >       48      238      239      319      332 </v>
   <v type="int" >       48      238      251      331      332 </v>
   <v type="int" >       48      238      318      331      332 </v>
   <v type="int" >       48      238      318      319      332 </v>
   <v type="int" >       48      239      252      253      333 </v>
   <v type="int" >       48      239      240      253      333 </v>
   <v type="int" >       48      239      240      320      333 </v>
   <v type="int" >       48      239      252      332      333 </v>
   <v type="int" >       48      239      319      332      333 </v>
   <v type="int" >       48      239      319      320      333 </v>
   <v type="int" >       48      240      253      254      334 </v>
   <v type="int" >       48      240      241      254      334 </v>
   <v type="int" >       48      240      241      321      334 </v>
   <v type="int" >       48      240      253      333      334 </v>
   <v type="int" >       48      240      320      333      334 </v>
   <v type="int" >       48      240      320      321      334 </v>
   <v type="int" >       48      241      254      255      335 </v>
   <v type="int" >       48      241      242      255      335 </v>
   <v type="int" >       48      241      242      322      335 </v>
   <v type="int" >       48      241      254      334      335 </v>
   <v type="int" >       48      241      321      334      335 </v>
   <v type="int" >       48      241      321      322      335 </v>
   <v type="int" >       48      242      255      256      336 </v>
   <v type="int" >       48      242      243      256      336 </v>
   <v type="int" >       48      242      243      323      336 </v>
   <v type="int" >       48      242      255      335      336 </v>
   <v type="int" >       48      242      322      335      336 </v>
   <v type="int" >       48      242      322      323      336 </v>
   <v type="int" >       48      243      256      257      337 </v>
   <v type="int" >       48      243      244      257      337 </v>
   <v type="int" >       48      243      244      324      337 </v>
   <v type="int" >       48      243      256      336      337 </v>
   <v type="int" >       48      243      323      336      337 </v>
   <v type="int" >       48      243      323      324      337 </v>
   <v type="int" >       48      244      257      258      338 </v>
[...]
        <r>  0.0000  0.0345  0.0690  0.1036  0.0000  0.0000  0.0000  0.0000  0.0000 </r>
       </set>
       <set comment="band 3">
        <r>  0.1647  0.0374  0.0209  0.0528  0.0000  0.0000  0.0000  0.0000  0.0000 </r>
       </set>
       <set comment="band 4">
        <r>  0.1300  0.0777  0.0832  0.0056  0.0000  0.0000  0.0000  0.0000  0.0000 </r>
       </set>
       <set comment="band 5">
        <r>  0.0000  0.0185  0.0371  0.0556  0.0000  0.0000  0.0000  0.0000  0.0000 </r>
       </set>
       <set comment="band 6">
        <r>  0.0011  0.0035  0.1866  0.1460  0.0000  0.0000  0.0000  0.0000  0.0000 </r>
       </set>
      </set>
      <set comment="kpoint 434">
       <set comment="band 1">
        <r>  0.1364  0.0071  0.0142  0.1010  0.0000  0.0000  0.0000  0.0000  0.0000 </r>
       </set>
       <set comment="band 2">
        <r>  0.0000  0.1341  0.0671  0.0000  0.0000  0.0000  0.0000  0.0000  0.0000 </r>
       </set>
       <set comment="band 3">
        <r>  0.0026  0.0497  0.0993  0.0009  0.0000  0.0000  0.0000  0.0000  0.0000 </r>
       </set>
       <set comment="band 4">
        <r>  0.3030  0.0002  0.0003  0.1257  0.0000  0.0000  0.0000  0.0000  0.0000 </r>
       </set>
       <set comment="band 5">
        <r>  0.0000  0.0862  0.0431  0.0000  0.0000  0.0000  0.0000  0.0000  0.0000 </r>
       </set>
       <set comment="band 6">
        <r>  0.0886  0.0679  0.1328  0.0548  0.0000  0.0000  0.0000  0.0000  0.0000 </r>
       </set>
      </set>
      <set comment="kpoint 435">
       <set comment="band 1">
        <r>  0.1167  0.0054  0.0174  0.1145  0.0000  0.0000  0.0000  0.0000  0.0000 </r>
       </set>
       <set comment="band 2">
        <r>  0.0227  0.1592  0.0245  0.0082  0.0000  0.0000  0.0000  0.0000  0.0000 </r>
       </set>
       <set comment="band 3">
        <r>  0.0251  0.0181  0.1308  0.0004  0.0000  0.0000  0.0000  0.0000  0.0000 </r>
       </set>
       <set comment="band 4">
        <r>  0.2891  0.0137  0.0106  0.0906  0.0000  0.0000  0.0000  0.0000  0.0000 </r>
       </set>
       <set comment="band 5">
        <r>  0.0121  0.0378  0.0884  0.0068  0.0000  0.0000  0.0000  0.0000  0.0000 </r>
       </set>
       <set comment="band 6">
        <r>  0.0747  0.1164  0.0648  0.0656  0.0000  0.0000  0.0000  0.0000  0.0000 </r>
       </set>
      </set>
      <set comment="kpoint 436">
       <set comment="band 1">
        <r>  0.0911  0.0039  0.0221  0.1296  0.0000  0.0000  0.0000  0.0000  0.0000 </r>
       </set>
       <set comment="band 2">
        <r>  0.0574  0.1498  0.0120  0.0126  0.0000  0.0000  0.0000  0.0000  0.0000 </r>
       </set>
       <set comment="band 3">
        <r>  0.0794  0.0211  0.1115  0.0028  0.0000  0.0000  0.0000  0.0000  0.0000 </r>
       </set>
       <set comment="band 4">
        <r>  0.2332  0.0283  0.0396  0.0567  0.0000  0.0000  0.0000  0.0000  0.0000 </r>
       </set>
       <set comment="band 5">
        <r>  0.0262  0.0137  0.1100  0.0212  0.0000  0.0000  0.0000  0.0000  0.0000 </r>
       </set>
       <set comment="band 6">
        <r>  0.0469  0.1176  0.0280  0.0732  0.0000  0.0000  0.0000  0.0000  0.0000 </r>
       </set>
      </set>
      <set comment="kpoint 437">
       <set comment="band 1">
        <r>  0.0326  0.0003  0.0344  0.1546  0.0000  0.0000  0.0000  0.0000  0.0000 </r>
       </set>
       <set comment="band 2">
        <r>  0.1137  0.1429  0.0023  0.0008  0.0000  0.0000  0.0000  0.0000  0.0000 </r>
       </set>
       <set comment="band 3">
        <r>  0.1239  0.0283  0.0881  0.0009  0.0000  0.0000  0.0000  0.0000  0.0000 </r>
       </set>
       <set comment="band 4">
        <r>  0.1946  0.0386  0.0615  0.0350  0.0000  0.0000  0.0000  0.0000  0.0000 </r>
       </set>
       <set comment="band 5">
        <r>  0.0323  0.0045  0.1161  0.0366  0.0000  0.0000  0.0000  0.0000  0.0000 </r>
       </set>
       <set comment="band 6">
        <r>  0.0040  0.1434  0.0580  0.0594  0.0000  0.0000  0.0000  0.0000  0.0000 </r>
       </set>
      </set>
      <set comment="kpoint 438">
       <set comment="band 1">
        <r>  0.0885  0.1194  0.0097  0.0243  0.0000  0.0000  0.0000  0.0000  0.0000 </r>
       </set>
       <set comment="band 2">
        <r>  0.0395  0.0195  0.0398  0.1357  0.0000  0.0000  0.0000  0.0000  0.0000 </r>
       </set>
       <set comment="band 3">
        <r>  0.1656  0.0315  0.0614  0.0021  0.0000  0.0000  0.0000  0.0000  0.0000 </r>
       </set>
       <set comment="band 4">
        <r>  0.1713  0.0469  0.0760  0.0210  0.0000  0.0000  0.0000  0.0000  0.0000 </r>
       </set>
       <set comment="band 5">
        <r>  0.0325  0.0010  0.1169  0.0531  0.0000  0.0000  0.0000  0.0000  0.0000 </r>
       </set>
       <set comment="band 6">
        <r>  0.0082  0.0236  0.0580  0.0181  0.0000  0.0000  0.0000  0.0000  0.0000 </r>
       </set>
      </set>
      <set comment="kpoint 439">
       <set comment="band 1">
        <r>  0.1143  0.1138  0.0066  0.0165  0.0000  0.0000  0.0000  0.0000  0.0000 </r>
       </set>
       <set comment="band 2">
        <r>  0.0000  0.0363  0.0725  0.1088  0.0000  0.0000  0.0000  0.0000  0.0000 </r>
       </set>
       <set comment="band 3">
        <r>  0.1913  0.0204  0.0213  0.0406  0.0000  0.0000  0.0000  0.0000  0.0000 </r>
       </set>
       <set comment="band 4">
        <r>  0.1557  0.0540  0.0864  0.0112  0.0000  0.0000  0.0000  0.0000  0.0000 </r>
       </set>
       <set comment="band 5">
        <r>  0.0279  0.0000  0.1159  0.0752  0.0000  0.0000  0.0000  0.0000  0.0000 </r>
       </set>
       <set comment="band 6">
        <r>  0.0053  0.0202  0.0366  0.0471  0.0000  0.0000  0.0000  0.0000  0.0000 </r>
       </set>
      </set>
      <set comment="kpoint 440">
       <set comment="band 1">
        <r>  0.1033  0.0109  0.0219  0.1161  0.0000  0.0000  0.0000  0.0000  0.0000 </r>
       </set>
       <set comment="band 2">
        <r>  0.0814  0.0416  0.0831  0.0049  0.0000  0.0000  0.0000  0.0000  0.0000 </r>
       </set>
       <set comment="band 3">
        <r>  0.0000  0.1353  0.0676  0.0000  0.0000  0.0000  0.0000  0.0000  0.0000 </r>
       </set>
       <set comment="band 4">
        <r>  0.2635  0.0077  0.0153  0.0944  0.0000  0.0000  0.0000  0.0000  0.0000 </r>
       </set>
       <set comment="band 5">
        <r>  0.0000  0.0881  0.0441  0.0000  0.0000  0.0000  0.0000  0.0000  0.0000 </r>
       </set>
       <set comment="band 6">
        <r>  0.1121  0.0492  0.0931  0.0726  0.0000  0.0000  0.0000  0.0000  0.0000 </r>
       </set>
      </set>
      <set comment="kpoint 441">
       <set comment="band 1">
        <r>  0.0739  0.0104  0.0293  0.1313  0.0000  0.0000  0.0000  0.0000  0.0000 </r>
       </set>
       <set comment="band 2">
        <r>  0.0012  0.1825  0.0000  0.0023  0.0000  0.0000  0.0000  0.0000  0.0000 </r>
       </set>
       <set comment="band 3">
        <r>  0.1375  0.0039  0.1130  0.0064  0.0000  0.0000  0.0000  0.0000  0.0000 </r>
       </set>
       <set comment="band 4">
        <r>  0.2460  0.0031  0.0480  0.0623  0.0000  0.0000  0.0000  0.0000  0.0000 </r>
       </set>
       <set comment="band 5">
        <r>  0.0125  0.0419  0.0831  0.0087  0.0000  0.0000  0.0000  0.0000  0.0000 </r>
       </set>
       <set comment="band 6">
        <r>  0.0813  0.0967  0.0501  0.0824  0.0000  0.0000  0.0000  0.0000  0.0000 </r>
       </set>
      </set>
      <set comment="kpoint 442">
       <set comment="band 1">
        <r>  0.0307  0.0117  0.0459  0.1450  0.0000  0.0000  0.0000  0.0000  0.0000 </r>
       </set>
       <set comment="band 2">
        <r>  0.0275  0.1719  0.0033  0.0096  0.0000  0.0000  0.0000  0.0000  0.0000 </r>
       </set>
       <set comment="band 3">
        <r>  0.1975  0.0054  0.0711  0.0000  0.0000  0.0000  0.0000  0.0000  0.0000 </r>
       </set>
       <set comment="band 4">
        <r>  0.2089  0.0162  0.0716  0.0369  0.0000  0.0000  0.0000  0.0000  0.0000 </r>
       </set>
       <set comment="band 5">
        <r>  0.0272  0.0172  0.0999  0.0267  0.0000  0.0000  0.0000  0.0000  0.0000 </r>
       </set>
       <set comment="band 6">
        <r>  0.0424  0.1250  0.0284  0.0912  0.0000  0.0000  0.0000  0.0000  0.0000 </r>
       </set>
      </set>
      <set comment="kpoint 443">
       <set comment="band 1">
        <r>  0.0592  0.1409  0.0077  0.0211  0.0000  0.0000  0.0000  0.0000  0.0000 </r>
       </set>
       <set comment="band 2">
        <r>  0.0000  0.0377  0.0754  0.1131  0.0000  0.0000  0.0000  0.0000  0.0000 </r>
       </set>
       <set comment="band 3">
        <r>  0.2220  0.0051  0.0234  0.0276  0.0000  0.0000  0.0000  0.0000  0.0000 </r>
       </set>
       <set comment="band 4">
        <r>  0.1855  0.0275  0.0865  0.0209  0.0000  0.0000  0.0000  0.0000  0.0000 </r>
       </set>
       <set comment="band 5">
        <r>  0.0333  0.0069  0.1027  0.0457  0.0000  0.0000  0.0000  0.0000  0.0000 </r>
       </set>
       <set comment="band 6">
        <r>  0.0089  0.1245  0.0299  0.1144  0.0000  0.0000  0.0000  0.0000  0.0000 </r>
       </set>
      </set>
      <set comment="kpoint 444">
       <set comment="band 1">
        <r>  0.0390  0.0225  0.0450  0.1345  0.0000  0.0000  0.0000  0.0000  0.0000 </r>
       </set>
       <set comment="band 2">
        <r>  0.1620  0.0258  0.0516  0.0000  0.0000  0.0000  0.0000  0.0000  0.0000 </r>
       </set>
       <set comment="band 3">
        <r>  0.0000  0.1359  0.0679  0.0000  0.0000  0.0000  0.0000  0.0000  0.0000 </r>
       </set>
       <set comment="band 4">
        <r>  0.2504  0.0155  0.0310  0.0687  0.0000  0.0000  0.0000  0.0000  0.0000 </r>
       </set>
       <set comment="band 5">
        <r>  0.0000  0.0891  0.0446  0.0000  0.0000  0.0000  0.0000  0.0000  0.0000 </r>
       </set>
       <set comment="band 6">
        <r>  0.1034  0.0355  0.0787  0.0938  0.0000  0.0000  0.0000  0.0000  0.0000 </r>
       </set>
      </set>
      <set comment="kpoint 445">
       <set comment="band 1">
        <r>  0.0000  0.0388  0.0777  0.1165  0.0000  0.0000  0.0000  0.0000  0.0000 </r>
       </set>
       <set comment="band 2">
        <r>  0.1563  0.0290  0.0092  0.0311  0.0000  0.0000  0.0000  0.0000  0.0000 </r>
       </set>
       <set comment="band 3">
        <r>  0.0666  0.1345  0.0399  0.0024  0.0000  0.0000  0.0000  0.0000  0.0000 </r>
       </set>
       <set comment="band 4">
        <r>  0.2374  0.0006  0.0710  0.0415  0.0000  0.0000  0.0000  0.0000  0.0000 </r>
       </set>
       <set comment="band 5">
        <r>  0.0127  0.0452  0.0779  0.0110  0.0000  0.0000  0.0000  0.0000  0.0000 </r>
       </set>
       <set comment="band 6">
        <r>  0.0835  0.0913  0.0453  0.1202  0.0000  0.0000  0.0000  0.0000  0.0000 </r>
       </set>
      </set>
      <set comment="kpoint 446">
       <set comment="band 1">
        <r>  0.1268  0.0051  0.0101  0.1137  0.0000  0.0000  0.0000  0.0000  0.0000 </r>
       </set>
       <set comment="band 2">
        <r>  0.0000  0.1399  0.0700  0.0000  0.0000  0.0000  0.0000  0.0000  0.0000 </r>
       </set>
       <set comment="band 3">
        <r>  0.1147  0.0225  0.0451  0.0495  0.0000  0.0000  0.0000  0.0000  0.0000 </r>
       </set>
       <set comment="band 4">
        <r>  0.2151  0.0285  0.0571  0.0487  0.0000  0.0000  0.0000  0.0000  0.0000 </r>
       </set>
       <set comment="band 5">
        <r>  0.0000  0.0775  0.0388  0.0000  0.0000  0.0000  0.0000  0.0000  0.0000 </r>
       </set>
       <set comment="band 6">
        <r>  0.0312  0.0915  0.1671  0.0726  0.0000  0.0000  0.0000  0.0000  0.0000 </r>
       </set>
      </set>
      <set comment="kpoint 447">
       <set comment="band 1">
        <r>  0.1053  0.0035  0.0130  0.1277  0.0000  0.0000  0.0000  0.0000  0.0000 </r>
       </set>
       <set comment="band 2">
        <r>  0.0314  0.1537  0.0337  0.0068  0.0000  0.0000  0.0000  0.0000  0.0000 </r>
       </set>
       <set comment="band 3">
        <r>  0.0808  0.0001  0.0992  0.0296  0.0000  0.0000  0.0000  0.0000  0.0000 </r>
       </set>
       <set comment="band 4">
        <r>  0.2464  0.0454  0.0375  0.0365  0.0000  0.0000  0.0000  0.0000  0.0000 </r>
       </set>
       <set comment="band 5">
        <r>  0.0072  0.0195  0.1102  0.0130  0.0000  0.0000  0.0000  0.0000  0.0000 </r>
       </set>
       <set comment="band 6">
        <r>  0.0341  0.0919  0.0984  0.0112  0.0000  0.0000  0.0000  0.0000  0.0000 </r>
       </set>
      </set>
      <set comment="kpoint 448">
       <set comment="band 1">
        <r>  0.0705  0.0007  0.0192  0.1459  0.0000  0.0000  0.0000  0.0000  0.0000 </r>
       </set>
       <set comment="band 2">
        <r>  0.0809  0.1437  0.0165  0.0057  0.0000  0.0000  0.0000  0.0000  0.0000 </r>
       </set>
       <set comment="band 3">
        <r>  0.0160  0.0000  0.1406  0.0111  0.0000  0.0000  0.0000  0.0000  0.0000 </r>
       </set>
       <set comment="band 4">
        <r>  0.3002  0.0655  0.0078  0.0285  0.0000  0.0000  0.0000  0.0000  0.0000 </r>
       </set>
       <set comment="band 5">
        <r>  0.0046  0.0000  0.1834  0.0346  0.0000  0.0000  0.0000  0.0000  0.0000 </r>
       </set>
       <set comment="band 6">
        <r>  0.0427  0.0687  0.0238  0.0003  0.0000  0.0000  0.0000  0.0000  0.0000 </r>
       </set>
      </set>
      <set comment="kpoint 449">
       <set comment="band 1">
        <r>  0.0939  0.0084  0.0168  0.1288  0.0000  0.0000  0.0000  0.0000  0.0000 </r>
       </set>
       <set comment="band 2">
        <r>  0.0000  0.1412  0.0706  0.0000  0.0000  0.0000  0.0000  0.0000  0.0000 </r>
       </set>
       <set comment="band 3">
        <r>  0.0019  0.0492  0.0985  0.0030  0.0000  0.0000  0.0000  0.0000  0.0000 </r>
       </set>
       <set comment="band 4">
        <r>  0.3679  0.0004  0.0009  0.0698  0.0000  0.0000  0.0000  0.0000  0.0000 </r>
       </set>
       <set comment="band 5">
        <r>  0.0000  0.0797  0.0399  0.0000  0.0000  0.0000  0.0000  0.0000  0.0000 </r>
       </set>
       <set comment="band 6">
        <r>  0.0485  0.0757  0.1408  0.0912  0.0000  0.0000  0.0000  0.0000  0.0000 </r>
       </set>
      </set>
      <set comment="kpoint 450">
       <set comment="band 1">
        <r>  0.0629  0.0070  0.0244  0.1439  0.0000  0.0000  0.0000  0.0000  0.0000 </r>
       </set>
       <set comment="band 2">
        <r>  0.0269  0.1675  0.0247  0.0043  0.0000  0.0000  0.0000  0.0000  0.0000 </r>
       </set>
       <set comment="band 3">
        <r>  0.0246  0.0146  0.1309  0.0016  0.0000  0.0000  0.0000  0.0000  0.0000 </r>
       </set>
       <set comment="band 4">
        <r>  0.3554  0.0157  0.0079  0.0417  0.0000  0.0000  0.0000  0.0000  0.0000 </r>
       </set>
       <set comment="band 5">
        <r>  0.0091  0.0280  0.0923  0.0141  0.0000  0.0000  0.0000  0.0000  0.0000 </r>
       </set>
       <set comment="band 6">
        <r>  0.0178  0.1238  0.0911  0.0898  0.0000  0.0000  0.0000  0.0000  0.0000 </r>
       </set>
      </set>
      <set comment="kpoint 451">
       <set comment="band 1">
        <r>  0.0281  0.1083  0.0309  0.0499  0.0000  0.0000  0.0000  0.0000  0.0000 </r>
       </set>
       <set comment="band 2">
        <r>  0.0564  0.0591  0.0210  0.1086  0.0000  0.0000  0.0000  0.0000  0.0000 </r>
       </set>
       <set comment="band 3">
        <r>  0.0906  0.0125  0.1016  0.0054  0.0000  0.0000  0.0000  0.0000  0.0000 </r>
       </set>
       <set comment="band 4">
        <r>  0.2965  0.0310  0.0352  0.0196  0.0000  0.0000  0.0000  0.0000  0.0000 </r>
       </set>
       <set comment="band 5">
        <r>  0.0154  0.0065  0.1212  0.0403  0.0000  0.0000  0.0000  0.0000  0.0000 </r>
       </set>
       <set comment="band 6">
        <r>  0.0069  0.0635  0.0765  0.0009  0.0000  0.0000  0.0000  0.0000  0.0000 </r>
       </set>
      </set>
      <set comment="kpoint 452">
       <set comment="band 1">
        <r>  0.0808  0.1337  0.0122  0.0146  0.0000  0.0000  0.0000  0.0000  0.0000 </r>
       </set>
       <set comment="band 2">
        <r>  0.0000  0.0366  0.0732  0.1098  0.0000  0.0000  0.0000  0.0000  0.0000 </r>
       </set>
       <set comment="band 3">
        <r>  0.1306  0.0056  0.0459  0.0476  0.0000  0.0000  0.0000  0.0000  0.0000 </r>
       </set>
       <set comment="band 4">
        <r>  0.2583  0.0415  0.0572  0.0060  0.0000  0.0000  0.0000  0.0000  0.0000 </r>
       </set>
       <set comment="band 5">
        <r>  0.0119  0.0008  0.1323  0.0793  0.0000  0.0000  0.0000  0.0000  0.0000 </r>
       </set>
       <set comment="band 6">
        <r>  0.0025  0.0097  0.0293  0.0629  0.0000  0.0000  0.0000  0.0000  0.0000 </r>
       </set>
      </set>
      <set comment="kpoint 453">
       <set comment="band 1">
        <r>  0.0339  0.0197  0.0393  0.1426  0.0000  0.0000  0.0000  0.0000  0.0000 </r>
       </set>
       <set comment="band 2">
        <r>  0.1030  0.0343  0.0686  0.0029  0.0000  0.0000  0.0000  0.0000  0.0000 </r>
       </set>
       <set comment="band 3">
        <r>  0.0000  0.1418  0.0709  0.0000  0.0000  0.0000  0.0000  0.0000  0.0000 </r>
       </set>
       <set comment="band 4">
        <r>  0.3304  0.0068  0.0136  0.0460  0.0000  0.0000  0.0000  0.0000  0.0000 </r>
       </set>
       <set comment="band 5">
        <r>  0.0000  0.0807  0.0403  0.0000  0.0000  0.0000  0.0000  0.0000  0.0000 </r>
       </set>
       <set comment="band 6">
        <r>  0.0699  0.0507  0.0977  0.1146  0.0000  0.0000  0.0000  0.0000  0.0000 </r>
       </set>
      </set>
      <set comment="kpoint 454">
       <set comment="band 1">
        <r>  0.0000  0.0379  0.0758  0.1137  0.0000  0.0000  0.0000  0.0000  0.0000 </r>
       </set>
       <set comment="band 2">
        <r>  0.0070  0.1657  0.0193  0.0148  0.0000  0.0000  0.0000  0.0000  0.0000 </r>
       </set>
       <set comment="band 3">
        <r>  0.1439  0.0000  0.0534  0.0350  0.0000  0.0000  0.0000  0.0000  0.0000 </r>
       </set>
       <set comment="band 4">
        <r>  0.3207  0.0034  0.0451  0.0195  0.0000  0.0000  0.0000  0.0000  0.0000 </r>
       </set>
       <set comment="band 5">
        <r>  0.0095  0.0325  0.0833  0.0173  0.0000  0.0000  0.0000  0.0000  0.0000 </r>
       </set>
       <set comment="band 6">
        <r>  0.0209  0.1046  0.0647  0.1383  0.0000  0.0000  0.0000  0.0000  0.0000 </r>
       </set>
      </set>
      <set comment="kpoint 455">
       <set comment="band 1">
        <r>  0.0261  0.0163  0.0327  0.1521  0.0000  0.0000  0.0000  0.0000  0.0000 </r>
       </set>
       <set comment="band 2">
        <r>  0.0000  0.1471  0.0735  0.0000  0.0000  0.0000  0.0000  0.0000  0.0000 </r>
       </set>
       <set comment="band 3">
        <r>  0.0000  0.0418  0.0836  0.0187  0.0000  0.0000  0.0000  0.0000  0.0000 </r>
       </set>
       <set comment="band 4">
        <r>  0.4477  0.0010  0.0020  0.0129  0.0000  0.0000  0.0000  0.0000  0.0000 </r>
       </set>
       <set comment="band 5">
        <r>  0.0000  0.0722  0.0361  0.0000  0.0000  0.0000  0.0000  0.0000  0.0000 </r>
       </set>
       <set comment="band 6">
        <r>  0.0072  0.0864  0.1744  0.0482  0.0000  0.0000  0.0000  0.0000  0.0000 </r>
       </set>
      </set>
     </set>
    </set>
   </array>
  </projected>
 </calculation>
 <structure name="finalpos" >
  <crystal>
   <varray name="basis" >
    <v>       2.85618472       0.00000000       0.00000000 </v>
    <v>       1.42809236       2.47352852       0.00000000 </v>
    <v>       1.42809236       0.82450951       2.33206506 </v>
   </varray>
   <i name="volume">     16.47570000 </i>
   <varray name="rec_basis" >
    <v>       0.35011741      -0.20214038      -0.14293483 </v>
    <v>       0.00000000       0.40428076      -0.14293483 </v>
    <v>       0.00000000       0.00000000       0.42880450 </v>
   </varray>
  </crystal>
  <varray name="positions" >
   <v>       0.00000000       0.00000000       0.00000000 </v>
  </varray>
 </structure>
</modeling>
