Al                                      
           1
     2.856185    0.000000    0.000000
     1.428092    2.473529    0.000000
     1.428092    0.824510    2.332065
   Al
     1
Direct configuration=     1
   0.00000000  0.00000000  0.00000000
