   1   1   0   0
  0.3375000E+04  0.1500000E-08  0.1500000E-08  0.1500000E-08  0.5000000E-15
   1.0000000000000000E-004
  CAR 
 Al atom                                 
      2.54960341     -9.97267966  301     -2.99820861      1.00000000
     -9.973  0.0000E+00  0.0000E+00  0.0000E+00  0.0000E+00
     -9.931  0.0000E+00  0.0000E+00  0.0000E+00  0.0000E+00
     -9.889  0.0000E+00  0.0000E+00  0.0000E+00  0.0000E+00
     -9.847  0.0000E+00  0.0000E+00  0.0000E+00  0.0000E+00
     -9.806  0.0000E+00  0.0000E+00  0.0000E+00  0.0000E+00
     -9.764  0.0000E+00  0.0000E+00  0.0000E+00  0.0000E+00
     -9.722  0.0000E+00  0.0000E+00  0.0000E+00  0.0000E+00
     -9.680  0.0000E+00  0.0000E+00  0.0000E+00  0.0000E+00
     -9.639  0.0000E+00  0.0000E+00  0.0000E+00  0.0000E+00
     -9.597  0.0000E+00  0.0000E+00  0.0000E+00  0.0000E+00
     -9.555  0.0000E+00  0.0000E+00  0.0000E+00  0.0000E+00
     -9.514  0.0000E+00  0.0000E+00  0.0000E+00  0.0000E+00
     -9.472  0.0000E+00  0.0000E+00  0.0000E+00  0.0000E+00
     -9.430  0.0000E+00  0.0000E+00  0.0000E+00  0.0000E+00
     -9.388  0.0000E+00  0.0000E+00  0.0000E+00  0.0000E+00
     -9.347  0.0000E+00  0.0000E+00  0.0000E+00  0.0000E+00
     -9.305  0.0000E+00  0.0000E+00  0.0000E+00  0.0000E+00
     -9.263  0.0000E+00  0.0000E+00  0.0000E+00  0.0000E+00
     -9.221  0.0000E+00  0.0000E+00  0.0000E+00  0.0000E+00
     -9.180  0.0000E+00  0.0000E+00  0.0000E+00  0.0000E+00
     -9.138  0.2660E-14  0.0000E+00  0.1110E-15  0.0000E+00
     -9.096  0.2128E-13  0.0000E+00  0.9992E-15  0.0000E+00
     -9.054  0.2194E-12  0.0000E+00  0.1016E-13  0.0000E+00
     -9.013  0.2068E-11  0.0000E+00  0.9648E-13  0.0000E+00
     -8.971  0.1786E-10  0.0000E+00  0.8418E-12  0.0000E+00
     -8.929  0.1414E-09  0.0000E+00  0.6744E-11  0.0000E+00
     -8.887  0.1027E-08  0.0000E+00  0.4960E-10  0.0000E+00
     -8.846  0.6838E-08  0.0000E+00  0.3350E-09  0.0000E+00
     -8.804  0.4176E-07  0.0000E+00  0.2078E-08  0.0000E+00
     -8.762  0.2339E-06  0.0000E+00  0.1184E-07  0.0000E+00
     -8.720  0.1201E-05  0.0000E+00  0.6198E-07  0.0000E+00
     -8.679  0.5659E-05  0.0000E+00  0.2982E-06  0.0000E+00
     -8.637  0.2444E-04  0.0000E+00  0.1319E-05  0.0000E+00
     -8.595  0.9684E-04  0.0000E+00  0.5361E-05  0.0000E+00
     -8.553  0.3519E-03  0.0000E+00  0.2005E-04  0.0000E+00
     -8.512  0.1172E-02  0.0000E+00  0.6899E-04  0.0000E+00
     -8.470  0.3583E-02  0.0000E+00  0.2185E-03  0.0000E+00
     -8.428  0.1004E-01  0.0000E+00  0.6377E-03  0.0000E+00
     -8.387  0.2581E-01  0.1330E-14  0.1715E-02  0.5551E-16
     -8.345  0.6084E-01  0.1064E-13  0.4255E-02  0.4996E-15
     -8.303  0.1315E+00  0.1157E-12  0.9745E-02  0.5329E-14
     -8.261  0.2608E+00  0.1116E-11  0.2063E-01  0.5190E-13
     -8.220  0.4743E+00  0.9868E-11  0.4043E-01  0.4638E-12
     -8.178  0.7911E+00  0.8006E-10  0.7345E-01  0.3805E-11
     -8.136  0.1210E+01  0.5956E-09  0.1240E+00  0.2867E-10
     -8.094  0.1698E+01  0.4063E-08  0.1948E+00  0.1983E-09
     -8.053  0.2184E+01  0.2542E-07  0.2860E+00  0.1259E-08
     -8.011  0.2578E+01  0.1459E-06  0.3936E+00  0.7348E-08
     -7.969  0.2790E+01  0.7675E-06  0.5101E+00  0.3938E-07
     -7.927  0.2769E+01  0.3704E-05  0.6257E+00  0.1940E-06
     -7.886  0.2521E+01  0.1639E-04  0.7309E+00  0.8781E-06
     -7.844  0.2105E+01  0.6652E-04  0.8188E+00  0.3655E-05
     -7.802  0.1612E+01  0.2476E-03  0.8861E+00  0.1399E-04
     -7.760  0.1132E+01  0.8452E-03  0.9333E+00  0.4927E-04
     -7.719  0.7294E+00  0.2646E-02  0.9638E+00  0.1597E-03
     -7.677  0.4309E+00  0.7597E-02  0.9817E+00  0.4768E-03
     -7.635  0.2335E+00  0.2000E-01  0.9915E+00  0.1312E-02
     -7.593  0.1160E+00  0.4831E-01  0.9963E+00  0.3328E-02
     -7.552  0.5287E-01  0.1070E+00  0.9985E+00  0.7795E-02
     -7.510  0.2210E-01  0.2173E+00  0.9995E+00  0.1687E-01
     -7.468  0.8472E-02  0.4049E+00  0.9998E+00  0.3377E-01
     -7.426  0.2979E-02  0.6918E+00  0.9999E+00  0.6265E-01
     -7.385  0.9604E-03  0.1084E+01  0.1000E+01  0.1079E+00
     -7.343  0.2840E-03  0.1558E+01  0.1000E+01  0.1729E+00
     -7.301  0.7702E-04  0.2054E+01  0.1000E+01  0.2587E+00
     -7.260  0.1916E-04  0.2483E+01  0.1000E+01  0.3623E+00
     -7.218  0.4369E-05  0.2753E+01  0.1000E+01  0.4772E+00
     -7.176  0.9139E-06  0.2799E+01  0.1000E+01  0.5941E+00
     -7.134  0.1753E-06  0.2611E+01  0.1000E+01  0.7030E+00
     -7.093  0.3084E-07  0.2233E+01  0.1000E+01  0.7962E+00
     -7.051  0.4976E-08  0.1752E+01  0.1000E+01  0.8694E+00
     -7.009  0.7363E-09  0.1261E+01  0.1000E+01  0.9220E+00
     -6.967  0.9990E-10  0.8318E+00  0.1000E+01  0.9567E+00
     -6.926  0.1243E-10  0.5034E+00  0.1000E+01  0.9777E+00
     -6.884  0.1418E-11  0.2794E+00  0.1000E+01  0.9894E+00
     -6.842  0.1489E-12  0.1423E+00  0.1000E+01  0.9953E+00
     -6.800  0.1596E-13  0.6642E-01  0.1000E+01  0.9981E+00
     -6.759  0.0000E+00  0.2844E-01  0.1000E+01  0.9993E+00
     -6.717  0.0000E+00  0.1117E-01  0.1000E+01  0.9998E+00
     -6.675  0.0000E+00  0.4023E-02  0.1000E+01  0.9999E+00
     -6.633  0.0000E+00  0.1329E-02  0.1000E+01  0.1000E+01
     -6.592  0.0000E+00  0.4025E-03  0.1000E+01  0.1000E+01
     -6.550  0.0000E+00  0.1118E-03  0.1000E+01  0.1000E+01
     -6.508  0.0000E+00  0.2849E-04  0.1000E+01  0.1000E+01
     -6.466  0.0000E+00  0.6658E-05  0.1000E+01  0.1000E+01
     -6.425  0.0000E+00  0.1427E-05  0.1000E+01  0.1000E+01
     -6.383  0.0000E+00  0.2804E-06  0.1000E+01  0.1000E+01
     -6.341  0.0000E+00  0.5054E-07  0.1000E+01  0.1000E+01
     -6.299  0.0000E+00  0.8353E-08  0.1000E+01  0.1000E+01
     -6.258  0.0000E+00  0.1266E-08  0.1000E+01  0.1000E+01
     -6.216  0.0000E+00  0.1760E-09  0.1000E+01  0.1000E+01
     -6.174  0.0000E+00  0.2244E-10  0.1000E+01  0.1000E+01
     -6.133  0.0000E+00  0.2623E-11  0.1000E+01  0.1000E+01
     -6.091  0.0000E+00  0.2793E-12  0.1000E+01  0.1000E+01
     -6.049  0.0000E+00  0.2926E-13  0.1000E+01  0.1000E+01
     -6.007  0.0000E+00  0.2660E-14  0.1000E+01  0.1000E+01
     -5.966  0.0000E+00  0.0000E+00  0.1000E+01  0.1000E+01
     -5.924  0.0000E+00  0.0000E+00  0.1000E+01  0.1000E+01
     -5.882  0.0000E+00  0.0000E+00  0.1000E+01  0.1000E+01
     -5.840  0.0000E+00  0.0000E+00  0.1000E+01  0.1000E+01
     -5.799  0.0000E+00  0.0000E+00  0.1000E+01  0.1000E+01
     -5.757  0.0000E+00  0.0000E+00  0.1000E+01  0.1000E+01
     -5.715  0.0000E+00  0.0000E+00  0.1000E+01  0.1000E+01
     -5.673  0.0000E+00  0.0000E+00  0.1000E+01  0.1000E+01
     -5.632  0.0000E+00  0.0000E+00  0.1000E+01  0.1000E+01
     -5.590  0.0000E+00  0.0000E+00  0.1000E+01  0.1000E+01
     -5.548  0.0000E+00  0.0000E+00  0.1000E+01  0.1000E+01
     -5.506  0.0000E+00  0.0000E+00  0.1000E+01  0.1000E+01
     -5.465  0.0000E+00  0.0000E+00  0.1000E+01  0.1000E+01
     -5.423  0.0000E+00  0.0000E+00  0.1000E+01  0.1000E+01
     -5.381  0.0000E+00  0.0000E+00  0.1000E+01  0.1000E+01
     -5.339  0.0000E+00  0.0000E+00  0.1000E+01  0.1000E+01
     -5.298  0.0000E+00  0.0000E+00  0.1000E+01  0.1000E+01
     -5.256  0.0000E+00  0.0000E+00  0.1000E+01  0.1000E+01
     -5.214  0.0000E+00  0.0000E+00  0.1000E+01  0.1000E+01
     -5.172  0.0000E+00  0.0000E+00  0.1000E+01  0.1000E+01
     -5.131  0.0000E+00  0.0000E+00  0.1000E+01  0.1000E+01
     -5.089  0.0000E+00  0.0000E+00  0.1000E+01  0.1000E+01
     -5.047  0.0000E+00  0.0000E+00  0.1000E+01  0.1000E+01
     -5.006  0.0000E+00  0.0000E+00  0.1000E+01  0.1000E+01
     -4.964  0.0000E+00  0.0000E+00  0.1000E+01  0.1000E+01
     -4.922  0.0000E+00  0.0000E+00  0.1000E+01  0.1000E+01
     -4.880  0.0000E+00  0.0000E+00  0.1000E+01  0.1000E+01
     -4.839  0.0000E+00  0.0000E+00  0.1000E+01  0.1000E+01
     -4.797  0.0000E+00  0.0000E+00  0.1000E+01  0.1000E+01
     -4.755  0.0000E+00  0.0000E+00  0.1000E+01  0.1000E+01
     -4.713  0.0000E+00  0.0000E+00  0.1000E+01  0.1000E+01
     -4.672  0.0000E+00  0.0000E+00  0.1000E+01  0.1000E+01
     -4.630  0.0000E+00  0.0000E+00  0.1000E+01  0.1000E+01
     -4.588  0.0000E+00  0.0000E+00  0.1000E+01  0.1000E+01
     -4.546  0.0000E+00  0.0000E+00  0.1000E+01  0.1000E+01
     -4.505  0.0000E+00  0.0000E+00  0.1000E+01  0.1000E+01
     -4.463  0.0000E+00  0.0000E+00  0.1000E+01  0.1000E+01
     -4.421  0.0000E+00  0.0000E+00  0.1000E+01  0.1000E+01
     -4.379  0.0000E+00  0.0000E+00  0.1000E+01  0.1000E+01
     -4.338  0.0000E+00  0.0000E+00  0.1000E+01  0.1000E+01
     -4.296  0.0000E+00  0.0000E+00  0.1000E+01  0.1000E+01
     -4.254  0.0000E+00  0.0000E+00  0.1000E+01  0.1000E+01
     -4.212  0.0000E+00  0.0000E+00  0.1000E+01  0.1000E+01
     -4.171  0.0000E+00  0.0000E+00  0.1000E+01  0.1000E+01
     -4.129  0.0000E+00  0.0000E+00  0.1000E+01  0.1000E+01
     -4.087  0.1596E-13  0.0000E+00  0.1000E+01  0.1000E+01
     -4.045  0.1516E-12  0.0000E+00  0.1000E+01  0.1000E+01
     -4.004  0.1512E-11  0.0000E+00  0.1000E+01  0.1000E+01
     -3.962  0.1379E-10  0.0000E+00  0.1000E+01  0.1000E+01
     -3.920  0.1153E-09  0.0000E+00  0.1000E+01  0.1000E+01
     -3.879  0.8849E-09  0.0000E+00  0.1000E+01  0.1000E+01
     -3.837  0.6226E-08  0.0000E+00  0.1000E+01  0.1000E+01
     -3.795  0.4017E-07  0.0000E+00  0.1000E+01  0.1000E+01
     -3.753  0.2377E-06  0.0000E+00  0.1000E+01  0.1000E+01
     -3.712  0.1290E-05  0.0000E+00  0.1000E+01  0.1000E+01
     -3.670  0.6417E-05  0.0000E+00  0.1000E+01  0.1000E+01
     -3.628  0.2929E-04  0.0000E+00  0.1000E+01  0.1000E+01
     -3.586  0.1226E-03  0.0000E+00  0.1000E+01  0.1000E+01
     -3.545  0.4704E-03  0.0000E+00  0.1000E+01  0.1000E+01
     -3.503  0.1656E-02  0.0000E+00  0.1000E+01  0.1000E+01
     -3.461  0.5346E-02  0.0000E+00  0.1000E+01  0.1000E+01
     -3.419  0.1583E-01  0.0000E+00  0.1001E+01  0.1000E+01
     -3.378  0.4298E-01  0.0000E+00  0.1003E+01  0.1000E+01
     -3.336  0.1070E+00  0.0000E+00  0.1007E+01  0.1000E+01
     -3.294  0.2444E+00  0.2394E-13  0.1017E+01  0.1000E+01
     -3.252  0.5120E+00  0.2154E-12  0.1039E+01  0.1000E+01
     -3.211  0.9836E+00  0.2150E-11  0.1080E+01  0.1000E+01
     -3.169  0.1733E+01  0.1933E-10  0.1152E+01  0.1000E+01
     -3.127  0.2800E+01  0.1595E-09  0.1269E+01  0.1000E+01
     -3.085  0.4150E+01  0.1207E-08  0.1442E+01  0.1000E+01
     -3.044  0.5641E+01  0.8380E-08  0.1678E+01  0.1000E+01
     -3.002  0.7033E+01  0.5334E-07  0.1971E+01  0.1000E+01
     -2.960  0.8041E+01  0.3114E-06  0.2307E+01  0.1000E+01
     -2.918  0.8431E+01  0.1667E-05  0.2659E+01  0.1000E+01
     -2.877  0.8109E+01  0.8183E-05  0.2997E+01  0.1000E+01
     -2.835  0.7152E+01  0.3684E-04  0.3296E+01  0.1000E+01
     -2.793  0.5786E+01  0.1521E-03  0.3537E+01  0.1000E+01
     -2.751  0.4293E+01  0.5760E-03  0.3717E+01  0.1000E+01
     -2.710  0.2921E+01  0.2000E-02  0.3839E+01  0.1000E+01
     -2.668  0.1823E+01  0.6371E-02  0.3915E+01  0.1000E+01
     -2.626  0.1043E+01  0.1861E-01  0.3958E+01  0.1001E+01
     -2.585  0.5478E+00  0.4985E-01  0.3981E+01  0.1003E+01
     -2.543  0.2637E+00  0.1225E+00  0.3992E+01  0.1008E+01
     -2.501  0.1165E+00  0.2760E+00  0.3997E+01  0.1020E+01
     -2.459  0.4716E-01  0.5703E+00  0.3999E+01  0.1044E+01
     -2.418  0.1751E-01  0.1081E+01  0.4000E+01  0.1089E+01
     -2.376  0.5966E-02  0.1879E+01  0.4000E+01  0.1167E+01
     -2.334  0.1864E-02  0.2995E+01  0.4000E+01  0.1292E+01
     -2.292  0.5339E-03  0.4379E+01  0.4000E+01  0.1475E+01
     -2.251  0.1403E-03  0.5873E+01  0.4000E+01  0.1720E+01
     -2.209  0.3380E-04  0.7222E+01  0.4000E+01  0.2022E+01
     -2.167  0.7470E-05  0.8147E+01  0.4000E+01  0.2362E+01
     -2.125  0.1514E-05  0.8428E+01  0.4000E+01  0.2713E+01
     -2.084  0.2814E-06  0.7997E+01  0.4000E+01  0.3047E+01
     -2.042  0.4796E-07  0.6959E+01  0.4000E+01  0.3338E+01
     -2.000  0.7496E-08  0.5554E+01  0.4000E+01  0.3570E+01
     -1.958  0.1075E-08  0.4065E+01  0.4000E+01  0.3739E+01
     -1.917  0.1413E-09  0.2729E+01  0.4000E+01  0.3853E+01
     -1.875  0.1703E-10  0.1680E+01  0.4000E+01  0.3923E+01
     -1.833  0.1883E-11  0.9489E+00  0.4000E+01  0.3963E+01
     -1.791  0.1915E-12  0.4914E+00  0.4000E+01  0.3983E+01
     -1.750  0.1596E-13  0.2334E+00  0.4000E+01  0.3993E+01
     -1.708  0.0000E+00  0.1017E+00  0.4000E+01  0.3997E+01
     -1.666  0.0000E+00  0.4062E-01  0.4000E+01  0.3999E+01
     -1.624  0.1330E-14  0.1488E-01  0.4000E+01  0.4000E+01
     -1.583  0.1862E-13  0.5002E-02  0.4000E+01  0.4000E+01
     -1.541  0.1849E-12  0.1542E-02  0.4000E+01  0.4000E+01
     -1.499  0.1749E-11  0.4357E-03  0.4000E+01  0.4000E+01
     -1.458  0.1521E-10  0.1129E-03  0.4000E+01  0.4000E+01
     -1.416  0.1212E-09  0.2685E-04  0.4000E+01  0.4000E+01
     -1.374  0.8860E-09  0.5853E-05  0.4000E+01  0.4000E+01
     -1.332  0.5940E-08  0.1170E-05  0.4000E+01  0.4000E+01
     -1.291  0.3651E-07  0.2146E-06  0.4000E+01  0.4000E+01
     -1.249  0.2058E-06  0.3608E-07  0.4000E+01  0.4000E+01
     -1.207  0.1064E-05  0.5564E-08  0.4000E+01  0.4000E+01
     -1.165  0.5046E-05  0.7885E-09  0.4000E+01  0.4000E+01
     -1.124  0.2194E-04  0.1161E-09  0.4000E+01  0.4000E+01
     -1.082  0.8750E-04  0.1245E-09  0.4000E+01  0.4000E+01
     -1.040  0.3200E-03  0.8255E-09  0.4000E+01  0.4000E+01
     -0.998  0.1073E-02  0.5543E-08  0.4000E+01  0.4000E+01
     -0.957  0.3302E-02  0.3418E-07  0.4000E+01  0.4000E+01
     -0.915  0.9314E-02  0.1933E-06  0.4001E+01  0.4000E+01
     -0.873  0.2410E-01  0.1003E-05  0.4002E+01  0.4000E+01
     -0.831  0.5718E-01  0.4770E-05  0.4004E+01  0.4000E+01
     -0.790  0.1244E+00  0.2081E-04  0.4009E+01  0.4000E+01
     -0.748  0.2484E+00  0.8324E-04  0.4020E+01  0.4000E+01
     -0.706  0.4547E+00  0.3054E-03  0.4039E+01  0.4000E+01
     -0.664  0.7633E+00  0.1028E-02  0.4070E+01  0.4000E+01
     -0.623  0.1175E+01  0.3171E-02  0.4119E+01  0.4000E+01
     -0.581  0.1660E+01  0.8976E-02  0.4189E+01  0.4001E+01
     -0.539  0.2150E+01  0.2330E-01  0.4278E+01  0.4002E+01
     -0.497  0.2553E+01  0.5546E-01  0.4385E+01  0.4004E+01
     -0.456  0.2782E+01  0.1211E+00  0.4501E+01  0.4009E+01
     -0.414  0.2779E+01  0.2424E+00  0.4617E+01  0.4019E+01
     -0.372  0.2547E+01  0.4452E+00  0.4723E+01  0.4038E+01
     -0.331  0.2141E+01  0.7499E+00  0.4813E+01  0.4069E+01
     -0.289  0.1650E+01  0.1158E+01  0.4882E+01  0.4117E+01
     -0.247  0.1167E+01  0.1641E+01  0.4930E+01  0.4186E+01
     -0.205  0.7573E+00  0.2132E+01  0.4962E+01  0.4275E+01
     -0.164  0.4525E+00  0.2541E+01  0.4981E+01  0.4381E+01
     -0.122  0.2531E+00  0.2777E+01  0.4991E+01  0.4497E+01
     -0.080  0.1431E+00  0.2784E+01  0.4997E+01  0.4613E+01
     -0.038  0.1055E+00  0.2560E+01  0.5002E+01  0.4720E+01
      0.003  0.1325E+00  0.2159E+01  0.5007E+01  0.4810E+01
      0.045  0.2297E+00  0.1672E+01  0.5017E+01  0.4880E+01
      0.087  0.4133E+00  0.1192E+01  0.5034E+01  0.4929E+01
      0.129  0.7004E+00  0.7920E+00  0.5063E+01  0.4962E+01
      0.170  0.1094E+01  0.5122E+00  0.5109E+01  0.4984E+01
      0.212  0.1569E+01  0.3673E+00  0.5175E+01  0.4999E+01
      0.254  0.2064E+01  0.3596E+00  0.5261E+01  0.5014E+01
      0.296  0.2491E+01  0.4889E+00  0.5365E+01  0.5035E+01
      0.337  0.2756E+01  0.7539E+00  0.5480E+01  0.5066E+01
      0.379  0.2798E+01  0.1142E+01  0.5597E+01  0.5114E+01
      0.421  0.2604E+01  0.1615E+01  0.5705E+01  0.5181E+01
      0.463  0.2223E+01  0.2106E+01  0.5798E+01  0.5269E+01
      0.504  0.1741E+01  0.2522E+01  0.5871E+01  0.5374E+01
      0.546  0.1250E+01  0.2769E+01  0.5923E+01  0.5490E+01
      0.588  0.8234E+00  0.2790E+01  0.5957E+01  0.5606E+01
      0.630  0.4974E+00  0.2578E+01  0.5978E+01  0.5714E+01
      0.671  0.2756E+00  0.2184E+01  0.5990E+01  0.5805E+01
      0.713  0.1400E+00  0.1698E+01  0.5995E+01  0.5876E+01
      0.755  0.6525E-01  0.1210E+01  0.5998E+01  0.5927E+01
      0.796  0.2789E-01  0.7911E+00  0.5999E+01  0.5960E+01
      0.838  0.1093E-01  0.4743E+00  0.6000E+01  0.5979E+01
      0.880  0.3929E-02  0.2608E+00  0.6000E+01  0.5990E+01
      0.922  0.1295E-02  0.1315E+00  0.6000E+01  0.5996E+01
      0.963  0.3917E-03  0.6084E-01  0.6000E+01  0.5998E+01
      1.005  0.1086E-03  0.2581E-01  0.6000E+01  0.5999E+01
      1.047  0.2762E-04  0.1004E-01  0.6000E+01  0.6000E+01
      1.089  0.6442E-05  0.3583E-02  0.6000E+01  0.6000E+01
      1.130  0.1378E-05  0.1172E-02  0.6000E+01  0.6000E+01
      1.172  0.2703E-06  0.3519E-03  0.6000E+01  0.6000E+01
      1.214  0.4862E-07  0.9684E-04  0.6000E+01  0.6000E+01
      1.256  0.8020E-08  0.2444E-04  0.6000E+01  0.6000E+01
      1.297  0.1213E-08  0.5659E-05  0.6000E+01  0.6000E+01
      1.339  0.1683E-09  0.1201E-05  0.6000E+01  0.6000E+01
      1.381  0.2142E-10  0.2339E-06  0.6000E+01  0.6000E+01
      1.423  0.2498E-11  0.4176E-07  0.6000E+01  0.6000E+01
      1.464  0.2686E-12  0.6838E-08  0.6000E+01  0.6000E+01
      1.506  0.2660E-13  0.1027E-08  0.6000E+01  0.6000E+01
      1.548  0.2660E-14  0.1414E-09  0.6000E+01  0.6000E+01
      1.590  0.0000E+00  0.1786E-10  0.6000E+01  0.6000E+01
      1.631  0.0000E+00  0.2067E-11  0.6000E+01  0.6000E+01
      1.673  0.0000E+00  0.2208E-12  0.6000E+01  0.6000E+01
      1.715  0.0000E+00  0.2128E-13  0.6000E+01  0.6000E+01
      1.757  0.0000E+00  0.2660E-14  0.6000E+01  0.6000E+01
      1.798  0.0000E+00  0.0000E+00  0.6000E+01  0.6000E+01
      1.840  0.0000E+00  0.0000E+00  0.6000E+01  0.6000E+01
      1.882  0.0000E+00  0.0000E+00  0.6000E+01  0.6000E+01
      1.923  0.0000E+00  0.0000E+00  0.6000E+01  0.6000E+01
      1.965  0.0000E+00  0.0000E+00  0.6000E+01  0.6000E+01
      2.007  0.0000E+00  0.0000E+00  0.6000E+01  0.6000E+01
      2.049  0.0000E+00  0.0000E+00  0.6000E+01  0.6000E+01
      2.090  0.0000E+00  0.0000E+00  0.6000E+01  0.6000E+01
      2.132  0.0000E+00  0.0000E+00  0.6000E+01  0.6000E+01
      2.174  0.0000E+00  0.0000E+00  0.6000E+01  0.6000E+01
      2.216  0.0000E+00  0.0000E+00  0.6000E+01  0.6000E+01
      2.257  0.0000E+00  0.0000E+00  0.6000E+01  0.6000E+01
      2.299  0.0000E+00  0.0000E+00  0.6000E+01  0.6000E+01
      2.341  0.0000E+00  0.0000E+00  0.6000E+01  0.6000E+01
      2.383  0.0000E+00  0.0000E+00  0.6000E+01  0.6000E+01
      2.424  0.0000E+00  0.0000E+00  0.6000E+01  0.6000E+01
      2.466  0.0000E+00  0.0000E+00  0.6000E+01  0.6000E+01
      2.508  0.0000E+00  0.0000E+00  0.6000E+01  0.6000E+01
      2.550  0.0000E+00  0.0000E+00  0.6000E+01  0.6000E+01
