    1    1    1    2
  0.3375000E+04  0.1500000E-08  0.1500000E-08  0.1500000E-08  0.5000000E-15
   1.0000000000000000E-004
  CAR 
 Al atom                                 
      3      1      6

  0.1262379E-14  0.1262379E-14  0.1262379E-14  0.1000000E+01
      1         -7.972680       -7.209692   1.000000   1.000000
      2         -2.937295       -2.150743   0.333333   0.000000
      3         -2.937295       -2.150743   0.333333   0.000000
      4         -2.937295       -2.150743   0.333333   0.000000
      5         -0.456142       -0.120662   0.000000   0.000000
      6          0.344499        0.549603   0.000000   0.000000
