       N       E                     dE             d eps       ncg     rms          rms(c)
DAV:   1     0.385359250484E+01    0.38536E+01   -0.18748E+02    24   0.123E+02
DAV:   2     0.581922929604E+00   -0.32717E+01   -0.24879E+01    42   0.242E+01
DAV:   3    -0.263964416900E+00   -0.84589E+00   -0.78976E+00    24   0.657E+00
DAV:   4    -0.328646387752E+00   -0.64682E-01   -0.61958E-01    30   0.212E+00
DAV:   5    -0.330343533260E+00   -0.16971E-02   -0.16967E-02    38   0.576E-01    0.590E-01
DAV:   6    -0.343048648343E+00   -0.12705E-01   -0.39572E-02    32   0.972E-01    0.171E-01
DAV:   7    -0.346424429066E+00   -0.33758E-02   -0.32897E-03    24   0.212E-01    0.570E-02
DAV:   8    -0.347157897613E+00   -0.73347E-03   -0.13682E-03    24   0.118E-01    0.227E-02
DAV:   9    -0.347586639822E+00   -0.42874E-03   -0.47897E-04    24   0.621E-02    0.106E-02
DAV:  10    -0.349634108579E+00   -0.20475E-02   -0.88506E-05    30   0.299E-02    0.874E-03
DAV:  11    -0.350343859488E+00   -0.70975E-03   -0.24437E-05    20   0.170E-02    0.334E-03
DAV:  12    -0.351289533450E+00   -0.94567E-03   -0.12405E-05    22   0.125E-02    0.202E-03
DAV:  13    -0.351585036733E+00   -0.29550E-03   -0.13226E-05    20   0.144E-02    0.159E-03
DAV:  14    -0.351594487641E+00   -0.94509E-05   -0.83905E-06    20   0.120E-02
   1 F= -.35159449E+00 E0= -.27446333E+00  d E =-.154262E+00  mag=     1.0000
