<?xml version="1.0" encoding="ISO-8859-1"?>
<modeling>
 <generator>
  <i name="program" type="string">vasp </i>
  <i name="version" type="string">6.4.2  </i>
  <i name="subversion" type="string">20Jul23 (build Oct 18 2023 12:49:41) complex                          parallel </i>
  <i name="platform" type="string">LinuxGNU </i>
  <i name="date" type="string">2025 04 11 </i>
  <i name="time" type="string">11:25:28 </i>
 </generator>
 <incar>
  <i type="string" name="SYSTEM">Al atom</i>
  <i type="int" name="ISTART">     0</i>
  <i type="int" name="NSIM">     1</i>
  <i type="int" name="ISPIN">     2</i>
  <i name="ENCUT">    400.00000000</i>
  <i type="int" name="ISMEAR">     0</i>
  <i type="logical" name="LWAVE"> F  </i>
  <i type="logical" name="LCHARG"> F  </i>
 </incar>
 <primitive_cell>
  <structure name="primitive_cell" >
   <crystal>
    <varray name="basis" >
     <v>      15.00000000       0.00000000       0.00000000 </v>
     <v>       0.00000000      15.00000000       0.00000000 </v>
     <v>       0.00000000       0.00000000      15.00000000 </v>
    </varray>
    <i name="volume">   3375.00000000 </i>
    <varray name="rec_basis" >
     <v>       0.06666667       0.00000000       0.00000000 </v>
     <v>       0.00000000       0.06666667       0.00000000 </v>
     <v>       0.00000000       0.00000000       0.06666667 </v>
    </varray>
   </crystal>
   <varray name="positions" >
    <v>       0.00000000       0.00000000       0.00000000 </v>
   </varray>
  </structure>
  <varray name="primitive_index" >
   <v type="int" >        1 </v>
  </varray>
 </primitive_cell>
 <kpoints>
  <generation param="Gamma">
   <v type="int" name="divisions">       1        1        1 </v>
   <v name="usershift">      0.00000000       0.00000000       0.00000000 </v>
   <v name="genvec1">      1.00000000       0.00000000       0.00000000 </v>
   <v name="genvec2">      0.00000000       1.00000000       0.00000000 </v>
   <v name="genvec3">      0.00000000       0.00000000       1.00000000 </v>
   <v name="shift">      0.00000000       0.00000000       0.00000000 </v>
  </generation>
  <varray name="kpointlist" >
   <v>       0.00000000       0.00000000       0.00000000 </v>
  </varray>
  <varray name="weights" >
   <v>       1.00000000 </v>
  </varray>
 </kpoints>
 <parameters>
  <separator name="general" >
   <i type="string" name="SYSTEM">Al atom</i>
   <i type="logical" name="LCOMPAT"> F  </i>
  </separator>
  <separator name="electronic" >
   <i type="string" name="PREC">normal</i>
   <i name="ENMAX">    400.00000000</i>
   <i name="ENAUG">    291.05200000</i>
   <i name="EDIFF">      0.00010000</i>
   <i type="int" name="IALGO">    38</i>
   <i type="int" name="IWAVPR">    10</i>
   <i type="int" name="NBANDS">     6</i>
   <i type="int" name="NBANDSLOW">    -1</i>
   <i type="int" name="NBANDSHIGH">    -1</i>
   <i name="NELECT">      3.00000000</i>
   <i type="int" name="TURBO">     0</i>
   <i type="int" name="IRESTART">     0</i>
   <i type="int" name="NREBOOT">     0</i>
   <i type="int" name="NMIN">     0</i>
   <i name="EREF">      0.00000000</i>
   <separator name="electronic smearing" >
    <i type="int" name="ISMEAR">     0</i>
    <i name="SIGMA">      0.20000000</i>
    <i name="KSPACING">      0.50000000</i>
    <i type="logical" name="KGAMMA"> T  </i>
    <i type="logical" name="KBLOWUP"> T  </i>
   </separator>
   <separator name="electronic projectors" >
    <i type="logical" name="LREAL"> F  </i>
    <v name="ROPT">      0.00000000</v>
    <i type="int" name="LMAXPAW">  -100</i>
    <i type="int" name="LMAXMIX">     2</i>
    <i type="logical" name="NLSPLINE"> F  </i>
   </separator>
   <separator name="electronic startup" >
    <i type="int" name="ISTART">     0</i>
    <i type="int" name="ICHARG">     2</i>
    <i type="int" name="INIWAV">     1</i>
   </separator>
   <separator name="electronic spin" >
    <i type="int" name="ISPIN">     2</i>
    <i type="logical" name="LNONCOLLINEAR"> F  </i>
    <v name="MAGMOM">      1.00000000</v>
    <i name="NUPDOWN">     -1.00000000</i>
    <i type="logical" name="LSORBIT"> F  </i>
    <v name="SAXIS">      0.00000000      0.00000000      1.00000000</v>
    <i type="logical" name="LSPIRAL"> F  </i>
    <v name="QSPIRAL">      0.00000000      0.00000000      0.00000000</v>
    <i type="logical" name="LZEROZ"> F  </i>
   </separator>
   <separator name="electronic exchange-correlation" >
    <i type="logical" name="LASPH"> F  </i>
    <i type="logical" name="LMETAGGA"> F  </i>
   </separator>
   <separator name="electronic convergence" >
    <i type="int" name="NELM">    60</i>
    <i type="int" name="NELMDL">    -5</i>
    <i type="int" name="NELMIN">     2</i>
    <i name="ENINI">    400.00000000</i>
    <separator name="electronic convergence detail" >
     <i type="logical" name="LDIAG"> T  </i>
     <i type="logical" name="LSUBROT"> F  </i>
     <i name="WEIMIN">      0.00000000</i>
     <i name="EBREAK">      0.00000417</i>
     <i name="DEPER">      0.30000000</i>
     <i type="int" name="NRMM">     4</i>
     <i name="TIME">      0.40000000</i>
    </separator>
   </separator>
   <separator name="electronic mixer" >
    <i name="AMIX">      0.40000000</i>
    <i name="BMIX">      1.00000000</i>
    <i name="AMIN">      0.10000000</i>
    <i name="AMIX_MAG">      1.60000000</i>
    <i name="BMIX_MAG">      1.00000000</i>
    <separator name="electronic mixer details" >
     <i type="int" name="IMIX">     4</i>
     <i type="logical" name="MIXFIRST"> F  </i>
     <i type="int" name="MAXMIX">   -45</i>
     <i name="WC">    100.00000000</i>
     <i type="int" name="INIMIX">     1</i>
     <i type="int" name="MIXPRE">     1</i>
     <i type="int" name="MREMOVE">     5</i>
    </separator>
   </separator>
   <separator name="electronic dipolcorrection" >
    <i type="logical" name="LDIPOL"> F  </i>
    <i type="logical" name="LMONO"> F  </i>
    <i type="int" name="IDIPOL">     0</i>
    <i name="EPSILON">      1.00000000</i>
    <v name="DIPOL">   -100.00000000   -100.00000000   -100.00000000</v>
    <i name="EFIELD">      0.00000000</i>
   </separator>
  </separator>
  <separator name="grids" >
   <i type="int" name="NGX">    80</i>
   <i type="int" name="NGY">    80</i>
   <i type="int" name="NGZ">    80</i>
   <i type="int" name="NGXF">   160</i>
   <i type="int" name="NGYF">   160</i>
   <i type="int" name="NGZF">   160</i>
   <i type="logical" name="ADDGRID"> F  </i>
  </separator>
  <separator name="ionic" >
   <i type="int" name="NSW">     0</i>
   <i type="int" name="IBRION">    -1</i>
   <i type="int" name="MDALGO">     0</i>
   <i type="int" name="ISIF">     2</i>
   <i name="PSTRESS">      0.00000000</i>
   <i name="EDIFFG">      0.00100000</i>
   <i type="int" name="NFREE">     0</i>
   <i name="POTIM">      0.50000000</i>
   <i name="SMASS">     -3.00000000</i>
   <i name="SCALEE">      1.00000000</i>
  </separator>
  <separator name="ionic md" >
   <i name="TEBEG">      0.00010000</i>
   <i name="TEEND">      0.00010000</i>
   <i type="int" name="NBLOCK">     1</i>
   <i type="int" name="KBLOCK">     1</i>
   <i type="int" name="NPACO">   256</i>
   <i name="APACO">     10.00000000</i>
  </separator>
  <separator name="symmetry" >
   <i type="int" name="ISYM">     2</i>
   <i name="SYMPREC">      0.00001000</i>
  </separator>
  <separator name="dos" >
   <i type="int" name="LORBIT">     0</i>
   <v name="RWIGS">     -1.00000000</v>
   <i type="int" name="NEDOS">   301</i>
   <i name="EMIN">     10.00000000</i>
   <i name="EMAX">    -10.00000000</i>
   <i name="EFERMI">      0.00000000</i>
  </separator>
  <separator name="writing" >
   <i type="int" name="NWRITE">     2</i>
   <i type="logical" name="LWAVE"> F  </i>
   <i type="logical" name="LDOWNSAMPLE"> F  </i>
   <i type="logical" name="LCHARG"> F  </i>
   <i type="logical" name="LPARD"> F  </i>
   <i type="logical" name="LVTOT"> F  </i>
   <i type="logical" name="LVHAR"> F  </i>
   <i type="logical" name="LELF"> F  </i>
   <i type="logical" name="LOPTICS"> F  </i>
   <v name="STM">      0.00000000      0.00000000      0.00000000      0.00000000      0.00000000      0.00000000      0.00000000</v>
  </separator>
  <separator name="performance" >
   <i type="int" name="NPAR">     1</i>
   <i type="int" name="NSIM">     1</i>
   <i type="int" name="NBLK">    -1</i>
   <i type="logical" name="LPLANE"> T  </i>
   <i type="logical" name="LSCALAPACK"> T  </i>
   <i type="logical" name="LSCAAWARE"> F  </i>
   <i type="logical" name="LSCALU"> F  </i>
   <i type="logical" name="LASYNC"> F  </i>
   <i type="logical" name="LORBITALREAL"> F  </i>
  </separator>
  <separator name="miscellaneous" >
   <i type="int" name="IDIOT">     3</i>
   <i type="int" name="PHON_NSTRUCT">    -1</i>
   <i type="logical" name="LMUSIC"> F  </i>
   <v name="POMASS">     26.98100000</v>
   <v name="DARWINR">      0.00000000</v>
   <v name="DARWINV">      1.00000000</v>
   <i type="logical" name="LCORR"> T  </i>
  </separator>
  <i type="logical" name="GGA_COMPAT"> T  </i>
  <i type="logical" name="LBERRY"> F  </i>
  <i type="int" name="ICORELEVEL">     0</i>
  <i type="logical" name="LDAU"> F  </i>
  <i type="int" name="I_CONSTRAINED_M">     0</i>
  <separator name="electronic exchange-correlation" >
   <i type="string" name="GGA">--</i>
   <i type="int" name="VOSKOWN">     0</i>
   <i type="logical" name="LHFCALC"> F  </i>
   <i type="string" name="PRECFOCK"></i>
   <i type="logical" name="LSYMGRAD"> F  </i>
   <i type="logical" name="LHFONE"> F  </i>
   <i type="logical" name="LRHFCALC"> F  </i>
   <i type="logical" name="LTHOMAS"> F  </i>
   <i type="logical" name="LMODELHF"> F  </i>
   <i type="logical" name="LFOCKACE"> F  </i>
   <i name="ENCUT4O">     -1.00000000</i>
   <i type="int" name="EXXOEP">     0</i>
   <i type="int" name="FOURORBIT">     0</i>
   <i name="AEXX">      0.00000000</i>
   <i name="HFALPHA">      0.00000000</i>
   <i name="MCALPHA">      0.00000000</i>
   <i name="ALDAX">      1.00000000</i>
   <i name="AGGAX">      1.00000000</i>
   <i name="ALDAC">      1.00000000</i>
   <i name="AGGAC">      1.00000000</i>
   <i type="int" name="NKREDX">     1</i>
   <i type="int" name="NKREDY">     1</i>
   <i type="int" name="NKREDZ">     1</i>
   <i type="logical" name="SHIFTRED"> F  </i>
   <i type="logical" name="ODDONLY"> F  </i>
   <i type="logical" name="EVENONLY"> F  </i>
   <i type="int" name="LMAXFOCK">     0</i>
   <i type="int" name="NMAXFOCKAE">     0</i>
   <i type="logical" name="LFOCKAEDFT"> F  </i>
   <i name="HFSCREEN">      0.00000000</i>
   <i name="HFSCREENC">      0.00000000</i>
   <i type="int" name="NBANDSGWLOW">     0</i>
  </separator>
  <separator name="vdW DFT" >
   <i type="logical" name="LUSE_VDW"> F  </i>
   <i type="int" name="IVDW_NL">     1</i>
   <i type="logical" name="LSPIN_VDW"> F  </i>
   <i name="Zab_VDW">     -0.84910000</i>
   <i name="PARAM1">      0.12340000</i>
   <i name="PARAM2">      1.00000000</i>
   <i name="PARAM3">      0.00000000</i>
  </separator>
  <separator name="model GW" >
   <i type="int" name="MODEL_GW">     0</i>
   <i name="MODEL_EPS0">   2025.00000000</i>
   <i name="MODEL_ALPHA">      1.00000000</i>
  </separator>
  <separator name="linear response parameters" >
   <i type="logical" name="LEPSILON"> F  </i>
   <i type="logical" name="LRPA"> F  </i>
   <i type="logical" name="LNABLA"> F  </i>
   <i type="logical" name="LVEL"> F  </i>
   <i name="CSHIFT">      0.10000000</i>
   <i name="OMEGAMAX">     -1.00000000</i>
   <i name="DEG_THRESHOLD">      0.00200000</i>
   <i name="RTIME">     -0.10000000</i>
   <i name="WPLASMAI">      0.00000000</i>
   <v name="DFIELD">      0.00000000      0.00000000      0.00000000</v>
   <v name="WPLASMA">      0.00000000      0.00000000      0.00000000      0.00000000      0.00000000      0.00000000      0.00000000      0.00000000      0.00000000</v>
  </separator>
  <separator name="orbital magnetization" >
   <i type="logical" name="NUCIND"> F  </i>
   <v name="MAGPOS">      0.00000000      0.00000000      0.00000000</v>
   <i type="logical" name="LNICSALL"> T  </i>
   <i type="logical" name="ORBITALMAG"> F  </i>
   <i type="logical" name="LMAGBLOCH"> F  </i>
   <i type="logical" name="LCHIMAG"> F  </i>
   <i type="logical" name="LGAUGE"> T  </i>
   <i type="int" name="MAGATOM">     0</i>
   <v name="MAGDIPOL">      0.00000000      0.00000000      0.00000000</v>
   <v name="AVECCONST">      0.00000000      0.00000000      0.00000000</v>
  </separator>
  <separator name="response functions" >
   <i type="logical" name="LALL_IN_ONE"> F  </i>
   <i type="int" name="IALL_IN_ONE">    -1</i>
   <i type="int" name="NBANDS_WAVE">    -1</i>
   <i type="logical" name="LFINITE_TEMPERATURE"> F  </i>
   <i type="logical" name="LADDER"> F  </i>
   <i type="logical" name="LRPAFORCE"> F  </i>
   <i type="logical" name="LFXC"> F  </i>
   <i type="logical" name="LHARTREE"> T  </i>
   <i type="int" name="IBSE">     0</i>
   <v type="int" name="KPOINT">    -1     0     0     0</v>
   <i type="logical" name="LTCTC"> F  </i>
   <i type="logical" name="LTCTE"> F  </i>
   <i type="logical" name="LTETE"> F  </i>
   <i type="logical" name="LTRIPLET"> F  </i>
   <i type="logical" name="LFXCEPS"> F  </i>
   <i type="logical" name="LFXHEG"> F  </i>
   <i type="int" name="NATURALO">     2</i>
   <i type="logical" name="LHOLEGF"> F  </i>
   <i type="logical" name="L2ORDER"> F  </i>
   <i type="logical" name="LDMP1"> F  </i>
   <i type="logical" name="LMP2LT"> F  </i>
   <i type="logical" name="LSMP2LT"> F  </i>
   <i type="logical" name="LGWLF"> F  </i>
   <i name="ENCUTGW">     -1.60000002</i>
   <i name="ENCUTGWSOFT">     -1.60000002</i>
   <i name="ENCUTLF">     -1.00000000</i>
   <i type="logical" name="LESF_SPLINES"> F  </i>
   <i type="int" name="LMAXMP2">    -1</i>
   <i name="SCISSOR">      0.00000000</i>
   <i type="int" name="NOMEGA">     0</i>
   <i type="int" name="NOMEGAR">     0</i>
   <i type="int" name="NBANDSGW">    -1</i>
   <i type="int" name="NBANDSO">    -1</i>
   <i type="int" name="NBANDSV">    -1</i>
   <i type="int" name="NELMGW">     1</i>
   <i type="int" name="NELMHF">     1</i>
   <i type="int" name="DIM">     3</i>
   <i type="int" name="IESPILON">     4</i>
   <i type="int" name="ANTIRES">     0</i>
   <i name="OMEGAMAX">    -30.00000000</i>
   <i name="OMEGAMIN">    -30.00000000</i>
   <i name="OMEGATL">   -200.00000000</i>
   <i type="int" name="OMEGAGRID">     0</i>
   <i name="CSHIFT">     -0.10000000</i>
   <i type="logical" name="LSELFENERGY"> F  </i>
   <i type="logical" name="LSPECTRAL"> F  </i>
   <i type="logical" name="LSPECTRALGW"> F  </i>
   <i type="logical" name="LSINGLES"> F  </i>
   <i type="logical" name="LFERMIGW"> F  </i>
   <i type="logical" name="ODDONLYGW"> F  </i>
   <i type="logical" name="EVENONLYGW"> F  </i>
   <i type="int" name="NKREDLFX">     1</i>
   <i type="int" name="NKREDLFY">     1</i>
   <i type="int" name="NKREDLFZ">     1</i>
   <i type="int" name="MAXMEM">  2800</i>
   <i type="int" name="TELESCOPE">     0</i>
   <i type="int" name="NTAUPAR">    -1</i>
   <i type="int" name="NOMEGAPAR">    -1</i>
   <i name="DAMP_NEWTON">      0.80000001</i>
   <i name="LAMBDA">      1.00000000</i>
  </separator>
  <separator name="External order field" >
   <i name="OFIELD_KAPPA">      0.00000000</i>
   <v name="OFIELD_K">      0.00000000      0.00000000      0.00000000</v>
   <i name="OFIELD_Q6_NEAR">      0.00000000</i>
   <i name="OFIELD_Q6_FAR">      0.00000000</i>
   <i name="OFIELD_A">      0.00000000</i>
  </separator>
  <separator name="optional k-points parameters" >
   <i type="int" name="KPOINTS_OPT_MODE">     1</i>
   <i type="logical" name="LKPOINTS_OPT"> F  </i>
  </separator>
 </parameters>
 <atominfo>
  <atoms>       1 </atoms>
  <types>       1 </types>
  <array name="atoms" >
   <dimension dim="1">ion</dimension>
   <field type="string">element</field>
   <field type="int">atomtype</field>
   <set>
    <rc><c>Al</c><c>   1</c></rc>
   </set>
  </array>
  <array name="atomtypes" >
   <dimension dim="1">type</dimension>
   <field type="int">atomspertype</field>
   <field type="string">element</field>
   <field>mass</field>
   <field>valence</field>
   <field type="string">pseudopotential</field>
   <set>
    <rc><c>   1</c><c>Al</c><c>     26.98100000</c><c>      3.00000000</c><c>  PAW_PBE Al 04Jan2001                  </c></rc>
   </set>
  </array>
 </atominfo>
 <structure name="initialpos" >
  <crystal>
   <varray name="basis" >
    <v>      15.00000000       0.00000000       0.00000000 </v>
    <v>       0.00000000      15.00000000       0.00000000 </v>
    <v>       0.00000000       0.00000000      15.00000000 </v>
   </varray>
   <i name="volume">   3375.00000000 </i>
   <varray name="rec_basis" >
    <v>       0.06666667       0.00000000       0.00000000 </v>
    <v>       0.00000000       0.06666667       0.00000000 </v>
    <v>       0.00000000       0.00000000       0.06666667 </v>
   </varray>
  </crystal>
  <varray name="positions" >
   <v>       0.00000000       0.00000000       0.00000000 </v>
  </varray>
 </structure>
 <calculation>
  <scstep>
   <time name="dav">    0.38    0.38</time>
   <time name="total">    2.48    2.48</time>
   <energy>
    <i name="alphaZ">     -0.00099520 </i>
    <i name="ewald">    -12.25694400 </i>
    <i name="hartreedc">    -27.17198790 </i>
    <i name="XCdc">    -27.96753065 </i>
    <i name="pawpsdc">     66.09387665 </i>
    <i name="pawaedc">    -34.14163118 </i>
    <i name="eentropy">     -0.12534837 </i>
    <i name="bandstr">    -14.11400116 </i>
    <i name="atom">     53.53815432 </i>
    <i name="e_fr_energy">      3.85359250 </i>
    <i name="e_wo_entrp">      3.97894087 </i>
    <i name="e_0_energy">      3.91626669 </i>
   </energy>
  </scstep>
  <scstep>
   <time name="dav">    0.55    0.55</time>
   <time name="total">    0.56    0.56</time>
   <energy>
    <i name="e_fr_energy">      0.58192293 </i>
    <i name="e_wo_entrp">      0.65597554 </i>
    <i name="e_0_energy">      0.61894923 </i>
   </energy>
  </scstep>
  <scstep>
   <time name="dav">    0.37    0.37</time>
   <time name="total">    0.37    0.37</time>
   <energy>
    <i name="e_fr_energy">     -0.26396442 </i>
    <i name="e_wo_entrp">     -0.11248872 </i>
    <i name="e_0_energy">     -0.18822657 </i>
   </energy>
  </scstep>
  <scstep>
   <time name="dav">    0.44    0.44</time>
   <time name="total">    0.44    0.44</time>
   <energy>
    <i name="e_fr_energy">     -0.32864639 </i>
    <i name="e_wo_entrp">     -0.17438446 </i>
    <i name="e_0_energy">     -0.25151542 </i>
   </energy>
  </scstep>
  <scstep>
   <time name="dav">    0.51    0.51</time>
   <time name="total">    0.75    0.75</time>
   <energy>
    <i name="e_fr_energy">     -0.33034353 </i>
    <i name="e_wo_entrp">     -0.17608120 </i>
    <i name="e_0_energy">     -0.25321237 </i>
   </energy>
  </scstep>
  <scstep>
   <time name="dav">    0.43    0.43</time>
   <time name="total">    2.38    2.38</time>
   <energy>
    <i name="e_fr_energy">     -0.34304865 </i>
    <i name="e_wo_entrp">     -0.18878633 </i>
    <i name="e_0_energy">     -0.26591749 </i>
   </energy>
  </scstep>
  <scstep>
   <time name="dav">    0.36    0.36</time>
   <time name="total">    2.51    2.51</time>
   <energy>
    <i name="e_fr_energy">     -0.34642443 </i>
    <i name="e_wo_entrp">     -0.19216211 </i>
    <i name="e_0_energy">     -0.26929327 </i>
   </energy>
  </scstep>
  <scstep>
   <time name="dav">    0.33    0.33</time>
   <time name="total">    2.27    2.27</time>
   <energy>
    <i name="e_fr_energy">     -0.34715790 </i>
    <i name="e_wo_entrp">     -0.19289558 </i>
    <i name="e_0_energy">     -0.27002674 </i>
   </energy>
  </scstep>
  <scstep>
   <time name="dav">    0.35    0.35</time>
   <time name="total">    2.41    2.41</time>
   <energy>
    <i name="e_fr_energy">     -0.34758664 </i>
    <i name="e_wo_entrp">     -0.19332432 </i>
    <i name="e_0_energy">     -0.27045548 </i>
   </energy>
  </scstep>
  <scstep>
   <time name="dav">    0.40    0.40</time>
   <time name="total">    2.38    2.38</time>
   <energy>
    <i name="e_fr_energy">     -0.34963411 </i>
    <i name="e_wo_entrp">     -0.19537179 </i>
    <i name="e_0_energy">     -0.27250295 </i>
   </energy>
  </scstep>
  <scstep>
   <time name="dav">    0.29    0.29</time>
   <time name="total">    2.20    2.20</time>
   <energy>
    <i name="e_fr_energy">     -0.35034386 </i>
    <i name="e_wo_entrp">     -0.19608154 </i>
    <i name="e_0_energy">     -0.27321270 </i>
   </energy>
  </scstep>
  <scstep>
   <time name="dav">    0.31    0.31</time>
   <time name="total">    2.20    2.20</time>
   <energy>
    <i name="e_fr_energy">     -0.35128953 </i>
    <i name="e_wo_entrp">     -0.19702721 </i>
    <i name="e_0_energy">     -0.27415837 </i>
   </energy>
  </scstep>
  <scstep>
   <time name="dav">    0.31    0.31</time>
   <time name="total">    2.30    2.30</time>
   <energy>
    <i name="e_fr_energy">     -0.35158504 </i>
    <i name="e_wo_entrp">     -0.19732271 </i>
    <i name="e_0_energy">     -0.27445388 </i>
   </energy>
  </scstep>
  <scstep>
   <time name="dav">    0.30    0.30</time>
   <time name="total">    2.09    2.09</time>
   <energy>
    <i name="alphaZ">     -0.00099520 </i>
    <i name="ewald">    -12.25694400 </i>
    <i name="hartreedc">    -27.33620350 </i>
    <i name="XCdc">    -27.97545630 </i>
    <i name="pawpsdc">     66.43807942 </i>
    <i name="pawaedc">    -34.48430032 </i>
    <i name="eentropy">     -0.15426232 </i>
    <i name="bandstr">    -18.11966659 </i>
    <i name="atom">     53.53815432 </i>
    <i name="e_fr_energy">     -0.35159449 </i>
    <i name="e_wo_entrp">     -0.19733217 </i>
    <i name="e_0_energy">     -0.27446333 </i>
   </energy>
  </scstep>
  <structure>
   <crystal>
    <varray name="basis" >
     <v>      15.00000000       0.00000000       0.00000000 </v>
     <v>       0.00000000      15.00000000       0.00000000 </v>
     <v>       0.00000000       0.00000000      15.00000000 </v>
    </varray>
    <i name="volume">   3375.00000000 </i>
    <varray name="rec_basis" >
     <v>       0.06666667       0.00000000       0.00000000 </v>
     <v>       0.00000000       0.06666667       0.00000000 </v>
     <v>       0.00000000       0.00000000       0.06666667 </v>
    </varray>
   </crystal>
   <varray name="positions" >
    <v>       0.00000000       0.00000000       0.00000000 </v>
   </varray>
  </structure>
  <varray name="forces" >
   <v>      -0.00000000      -0.00000000      -0.00000000 </v>
  </varray>
  <varray name="stress" >
   <v>       0.00061101      -0.00000000       0.00000000 </v>
   <v>       0.00000000       0.00061101      -0.00000000 </v>
   <v>       0.00000000       0.00000000       0.00061101 </v>
  </varray>
  <energy>
   <i name="e_fr_energy">     -0.35159449 </i>
   <i name="e_wo_entrp">     -0.19733217 </i>
   <i name="e_0_energy">     -0.27446333 </i>
  </energy>
  <time name="totalsc">   29.60   29.60</time>
  <eigenvalues>
   <array>
    <dimension dim="1">band</dimension>
    <dimension dim="2">kpoint</dimension>
    <dimension dim="3">spin</dimension>
    <field>eigene</field>
    <field>occ</field>
    <set>
     <set comment="spin 1">
      <set comment="kpoint 1">
       <r>   -7.9727    1.0000 </r>
       <r>   -2.9373    0.3333 </r>
       <r>   -2.9373    0.3333 </r>
       <r>   -2.9373    0.3333 </r>
       <r>   -0.4561    0.0000 </r>
       <r>    0.3445    0.0000 </r>
      </set>
     </set>
     <set comment="spin 2">
      <set comment="kpoint 1">
       <r>   -7.2097    1.0000 </r>
       <r>   -2.1507    0.0000 </r>
       <r>   -2.1507    0.0000 </r>
       <r>   -2.1507    0.0000 </r>
       <r>   -0.1207    0.0000 </r>
       <r>    0.5496    0.0000 </r>
      </set>
     </set>
    </set>
   </array>
  </eigenvalues>
  <separator name="orbital magnetization" >
   <v name="MAGDIPOLOUT">      0.00000000      0.00000000      0.00000000</v>
  </separator>
  <dos>
   <i name="efermi">     -2.99820861 </i>
   <total>
    <array>
     <dimension dim="1">gridpoints</dimension>
     <dimension dim="2">spin</dimension>
     <field>energy</field>
     <field>total</field>
     <field>integrated</field>
     <set>
      <set comment="spin 1">
       <r>    -9.9727     0.0000     0.0000 </r>
       <r>    -9.9309     0.0000     0.0000 </r>
       <r>    -9.8892     0.0000     0.0000 </r>
       <r>    -9.8475     0.0000     0.0000 </r>
       <r>    -9.8057     0.0000     0.0000 </r>
       <r>    -9.7640     0.0000     0.0000 </r>
       <r>    -9.7222     0.0000     0.0000 </r>
       <r>    -9.6805     0.0000     0.0000 </r>
       <r>    -9.6388     0.0000     0.0000 </r>
       <r>    -9.5970     0.0000     0.0000 </r>
       <r>    -9.5553     0.0000     0.0000 </r>
       <r>    -9.5135     0.0000     0.0000 </r>
       <r>    -9.4718     0.0000     0.0000 </r>
       <r>    -9.4300     0.0000     0.0000 </r>
       <r>    -9.3883     0.0000     0.0000 </r>
       <r>    -9.3466     0.0000     0.0000 </r>
       <r>    -9.3048     0.0000     0.0000 </r>
       <r>    -9.2631     0.0000     0.0000 </r>
       <r>    -9.2213     0.0000     0.0000 </r>
       <r>    -9.1796     0.0000     0.0000 </r>
       <r>    -9.1379     0.0000     0.0000 </r>
       <r>    -9.0961     0.0000     0.0000 </r>
       <r>    -9.0544     0.0000     0.0000 </r>
       <r>    -9.0126     0.0000     0.0000 </r>
       <r>    -8.9709     0.0000     0.0000 </r>
       <r>    -8.9292     0.0000     0.0000 </r>
       <r>    -8.8874     0.0000     0.0000 </r>
       <r>    -8.8457     0.0000     0.0000 </r>
       <r>    -8.8039     0.0000     0.0000 </r>
       <r>    -8.7622     0.0000     0.0000 </r>
       <r>    -8.7205     0.0000     0.0000 </r>
       <r>    -8.6787     0.0000     0.0000 </r>
       <r>    -8.6370     0.0000     0.0000 </r>
       <r>    -8.5952     0.0001     0.0000 </r>
       <r>    -8.5535     0.0004     0.0000 </r>
       <r>    -8.5117     0.0012     0.0001 </r>
       <r>    -8.4700     0.0036     0.0002 </r>
       <r>    -8.4283     0.0100     0.0006 </r>
       <r>    -8.3865     0.0258     0.0017 </r>
       <r>    -8.3448     0.0608     0.0043 </r>
       <r>    -8.3030     0.1315     0.0097 </r>
       <r>    -8.2613     0.2608     0.0206 </r>
       <r>    -8.2196     0.4743     0.0404 </r>
       <r>    -8.1778     0.7911     0.0735 </r>
       <r>    -8.1361     1.2101     0.1240 </r>
       <r>    -8.0943     1.6977     0.1948 </r>
       <r>    -8.0526     2.1844     0.2860 </r>
       <r>    -8.0109     2.5778     0.3936 </r>
       <r>    -7.9691     2.7899     0.5101 </r>
       <r>    -7.9274     2.7694     0.6257 </r>
       <r>    -7.8856     2.5213     0.7309 </r>
       <r>    -7.8439     2.1052     0.8188 </r>
       <r>    -7.8022     1.6121     0.8861 </r>
       <r>    -7.7604     1.1323     0.9333 </r>
       <r>    -7.7187     0.7294     0.9638 </r>
       <r>    -7.6769     0.4309     0.9817 </r>
       <r>    -7.6352     0.2335     0.9915 </r>
       <r>    -7.5934     0.1160     0.9963 </r>
       <r>    -7.5517     0.0529     0.9985 </r>
       <r>    -7.5100     0.0221     0.9995 </r>
       <r>    -7.4682     0.0085     0.9998 </r>
       <r>    -7.4265     0.0030     0.9999 </r>
       <r>    -7.3847     0.0010     1.0000 </r>
       <r>    -7.3430     0.0003     1.0000 </r>
       <r>    -7.3013     0.0001     1.0000 </r>
       <r>    -7.2595     0.0000     1.0000 </r>
       <r>    -7.2178     0.0000     1.0000 </r>
       <r>    -7.1760     0.0000     1.0000 </r>
       <r>    -7.1343     0.0000     1.0000 </r>
       <r>    -7.0926     0.0000     1.0000 </r>
       <r>    -7.0508     0.0000     1.0000 </r>
       <r>    -7.0091     0.0000     1.0000 </r>
       <r>    -6.9673     0.0000     1.0000 </r>
       <r>    -6.9256     0.0000     1.0000 </r>
       <r>    -6.8838     0.0000     1.0000 </r>
       <r>    -6.8421     0.0000     1.0000 </r>
       <r>    -6.8004     0.0000     1.0000 </r>
       <r>    -6.7586     0.0000     1.0000 </r>
       <r>    -6.7169     0.0000     1.0000 </r>
       <r>    -6.6751     0.0000     1.0000 </r>
       <r>    -6.6334     0.0000     1.0000 </r>
       <r>    -6.5917     0.0000     1.0000 </r>
       <r>    -6.5499     0.0000     1.0000 </r>
       <r>    -6.5082     0.0000     1.0000 </r>
       <r>    -6.4664     0.0000     1.0000 </r>
       <r>    -6.4247     0.0000     1.0000 </r>
       <r>    -6.3830     0.0000     1.0000 </r>
       <r>    -6.3412     0.0000     1.0000 </r>
       <r>    -6.2995     0.0000     1.0000 </r>
       <r>    -6.2577     0.0000     1.0000 </r>
       <r>    -6.2160     0.0000     1.0000 </r>
       <r>    -6.1743     0.0000     1.0000 </r>
       <r>    -6.1325     0.0000     1.0000 </r>
       <r>    -6.0908     0.0000     1.0000 </r>
       <r>    -6.0490     0.0000     1.0000 </r>
       <r>    -6.0073     0.0000     1.0000 </r>
       <r>    -5.9655     0.0000     1.0000 </r>
       <r>    -5.9238     0.0000     1.0000 </r>
       <r>    -5.8821     0.0000     1.0000 </r>
       <r>    -5.8403     0.0000     1.0000 </r>
       <r>    -5.7986     0.0000     1.0000 </r>
       <r>    -5.7568     0.0000     1.0000 </r>
       <r>    -5.7151     0.0000     1.0000 </r>
       <r>    -5.6734     0.0000     1.0000 </r>
       <r>    -5.6316     0.0000     1.0000 </r>
       <r>    -5.5899     0.0000     1.0000 </r>
       <r>    -5.5481     0.0000     1.0000 </r>
       <r>    -5.5064     0.0000     1.0000 </r>
       <r>    -5.4647     0.0000     1.0000 </r>
       <r>    -5.4229     0.0000     1.0000 </r>
       <r>    -5.3812     0.0000     1.0000 </r>
       <r>    -5.3394     0.0000     1.0000 </r>
       <r>    -5.2977     0.0000     1.0000 </r>
       <r>    -5.2560     0.0000     1.0000 </r>
       <r>    -5.2142     0.0000     1.0000 </r>
       <r>    -5.1725     0.0000     1.0000 </r>
       <r>    -5.1307     0.0000     1.0000 </r>
       <r>    -5.0890     0.0000     1.0000 </r>
       <r>    -5.0472     0.0000     1.0000 </r>
       <r>    -5.0055     0.0000     1.0000 </r>
       <r>    -4.9638     0.0000     1.0000 </r>
       <r>    -4.9220     0.0000     1.0000 </r>
       <r>    -4.8803     0.0000     1.0000 </r>
       <r>    -4.8385     0.0000     1.0000 </r>
       <r>    -4.7968     0.0000     1.0000 </r>
       <r>    -4.7551     0.0000     1.0000 </r>
       <r>    -4.7133     0.0000     1.0000 </r>
       <r>    -4.6716     0.0000     1.0000 </r>
       <r>    -4.6298     0.0000     1.0000 </r>
       <r>    -4.5881     0.0000     1.0000 </r>
       <r>    -4.5464     0.0000     1.0000 </r>
       <r>    -4.5046     0.0000     1.0000 </r>
       <r>    -4.4629     0.0000     1.0000 </r>
       <r>    -4.4211     0.0000     1.0000 </r>
       <r>    -4.3794     0.0000     1.0000 </r>
       <r>    -4.3377     0.0000     1.0000 </r>
       <r>    -4.2959     0.0000     1.0000 </r>
       <r>    -4.2542     0.0000     1.0000 </r>
       <r>    -4.2124     0.0000     1.0000 </r>
       <r>    -4.1707     0.0000     1.0000 </r>
       <r>    -4.1289     0.0000     1.0000 </r>
       <r>    -4.0872     0.0000     1.0000 </r>
       <r>    -4.0455     0.0000     1.0000 </r>
       <r>    -4.0037     0.0000     1.0000 </r>
       <r>    -3.9620     0.0000     1.0000 </r>
       <r>    -3.9202     0.0000     1.0000 </r>
       <r>    -3.8785     0.0000     1.0000 </r>
       <r>    -3.8368     0.0000     1.0000 </r>
       <r>    -3.7950     0.0000     1.0000 </r>
       <r>    -3.7533     0.0000     1.0000 </r>
       <r>    -3.7115     0.0000     1.0000 </r>
       <r>    -3.6698     0.0000     1.0000 </r>
       <r>    -3.6281     0.0000     1.0000 </r>
       <r>    -3.5863     0.0001     1.0000 </r>
       <r>    -3.5446     0.0005     1.0000 </r>
       <r>    -3.5028     0.0017     1.0001 </r>
       <r>    -3.4611     0.0053     1.0003 </r>
       <r>    -3.4194     0.0158     1.0010 </r>
       <r>    -3.3776     0.0430     1.0028 </r>
       <r>    -3.3359     0.1070     1.0072 </r>
       <r>    -3.2941     0.2444     1.0174 </r>
       <r>    -3.2524     0.5120     1.0388 </r>
       <r>    -3.2106     0.9836     1.0799 </r>
       <r>    -3.1689     1.7331     1.1522 </r>
       <r>    -3.1272     2.8005     1.2691 </r>
       <r>    -3.0854     4.1504     1.4423 </r>
       <r>    -3.0437     5.6413     1.6778 </r>
       <r>    -3.0019     7.0326     1.9714 </r>
       <r>    -2.9602     8.0405     2.3070 </r>
       <r>    -2.9185     8.4314     2.6589 </r>
       <r>    -2.8767     8.1087     2.9974 </r>
       <r>    -2.8350     7.1522     3.2959 </r>
       <r>    -2.7932     5.7859     3.5374 </r>
       <r>    -2.7515     4.2928     3.7166 </r>
       <r>    -2.7098     2.9212     3.8386 </r>
       <r>    -2.6680     1.8231     3.9147 </r>
       <r>    -2.6263     1.0435     3.9582 </r>
       <r>    -2.5845     0.5478     3.9811 </r>
       <r>    -2.5428     0.2637     3.9921 </r>
       <r>    -2.5011     0.1165     3.9969 </r>
       <r>    -2.4593     0.0472     3.9989 </r>
       <r>    -2.4176     0.0175     3.9996 </r>
       <r>    -2.3758     0.0060     3.9999 </r>
       <r>    -2.3341     0.0019     4.0000 </r>
       <r>    -2.2923     0.0005     4.0000 </r>
       <r>    -2.2506     0.0001     4.0000 </r>
       <r>    -2.2089     0.0000     4.0000 </r>
       <r>    -2.1671     0.0000     4.0000 </r>
       <r>    -2.1254     0.0000     4.0000 </r>
       <r>    -2.0836     0.0000     4.0000 </r>
       <r>    -2.0419     0.0000     4.0000 </r>
       <r>    -2.0002     0.0000     4.0000 </r>
       <r>    -1.9584     0.0000     4.0000 </r>
       <r>    -1.9167     0.0000     4.0000 </r>
       <r>    -1.8749     0.0000     4.0000 </r>
       <r>    -1.8332     0.0000     4.0000 </r>
       <r>    -1.7915     0.0000     4.0000 </r>
       <r>    -1.7497     0.0000     4.0000 </r>
       <r>    -1.7080     0.0000     4.0000 </r>
       <r>    -1.6662     0.0000     4.0000 </r>
       <r>    -1.6245     0.0000     4.0000 </r>
       <r>    -1.5828     0.0000     4.0000 </r>
       <r>    -1.5410     0.0000     4.0000 </r>
       <r>    -1.4993     0.0000     4.0000 </r>
       <r>    -1.4575     0.0000     4.0000 </r>
       <r>    -1.4158     0.0000     4.0000 </r>
       <r>    -1.3740     0.0000     4.0000 </r>
       <r>    -1.3323     0.0000     4.0000 </r>
       <r>    -1.2906     0.0000     4.0000 </r>
       <r>    -1.2488     0.0000     4.0000 </r>
       <r>    -1.2071     0.0000     4.0000 </r>
       <r>    -1.1653     0.0000     4.0000 </r>
       <r>    -1.1236     0.0000     4.0000 </r>
       <r>    -1.0819     0.0001     4.0000 </r>
       <r>    -1.0401     0.0003     4.0000 </r>
       <r>    -0.9984     0.0011     4.0001 </r>
       <r>    -0.9566     0.0033     4.0002 </r>
       <r>    -0.9149     0.0093     4.0006 </r>
       <r>    -0.8732     0.0241     4.0016 </r>
       <r>    -0.8314     0.0572     4.0040 </r>
       <r>    -0.7897     0.1244     4.0092 </r>
       <r>    -0.7479     0.2484     4.0195 </r>
       <r>    -0.7062     0.4547     4.0385 </r>
       <r>    -0.6644     0.7633     4.0704 </r>
       <r>    -0.6227     1.1753     4.1194 </r>
       <r>    -0.5810     1.6596     4.1887 </r>
       <r>    -0.5392     2.1495     4.2784 </r>
       <r>    -0.4975     2.5533     4.3850 </r>
       <r>    -0.4557     2.7817     4.5011 </r>
       <r>    -0.4140     2.7794     4.6171 </r>
       <r>    -0.3723     2.5470     4.7234 </r>
       <r>    -0.3305     2.1407     4.8128 </r>
       <r>    -0.2888     1.6502     4.8817 </r>
       <r>    -0.2470     1.1668     4.9304 </r>
       <r>    -0.2053     0.7573     4.9620 </r>
       <r>    -0.1636     0.4525     4.9809 </r>
       <r>    -0.1218     0.2531     4.9914 </r>
       <r>    -0.0801     0.1431     4.9974 </r>
       <r>    -0.0383     0.1055     5.0018 </r>
       <r>     0.0034     0.1325     5.0074 </r>
       <r>     0.0451     0.2297     5.0169 </r>
       <r>     0.0869     0.4133     5.0342 </r>
       <r>     0.1286     0.7004     5.0634 </r>
       <r>     0.1704     1.0942     5.1091 </r>
       <r>     0.2121     1.5692     5.1746 </r>
       <r>     0.2539     2.0643     5.2608 </r>
       <r>     0.2956     2.4908     5.3647 </r>
       <r>     0.3373     2.7564     5.4798 </r>
       <r>     0.3791     2.7977     5.5966 </r>
       <r>     0.4208     2.6043     5.7053 </r>
       <r>     0.4626     2.2234     5.7981 </r>
       <r>     0.5043     1.7409     5.8707 </r>
       <r>     0.5460     1.2502     5.9229 </r>
       <r>     0.5878     0.8234     5.9573 </r>
       <r>     0.6295     0.4974     5.9781 </r>
       <r>     0.6713     0.2756     5.9896 </r>
       <r>     0.7130     0.1400     5.9954 </r>
       <r>     0.7547     0.0652     5.9981 </r>
       <r>     0.7965     0.0279     5.9993 </r>
       <r>     0.8382     0.0109     5.9998 </r>
       <r>     0.8800     0.0039     5.9999 </r>
       <r>     0.9217     0.0013     6.0000 </r>
       <r>     0.9634     0.0004     6.0000 </r>
       <r>     1.0052     0.0001     6.0000 </r>
       <r>     1.0469     0.0000     6.0000 </r>
       <r>     1.0887     0.0000     6.0000 </r>
       <r>     1.1304     0.0000     6.0000 </r>
       <r>     1.1722     0.0000     6.0000 </r>
       <r>     1.2139     0.0000     6.0000 </r>
       <r>     1.2556     0.0000     6.0000 </r>
       <r>     1.2974     0.0000     6.0000 </r>
       <r>     1.3391     0.0000     6.0000 </r>
       <r>     1.3809     0.0000     6.0000 </r>
       <r>     1.4226     0.0000     6.0000 </r>
       <r>     1.4643     0.0000     6.0000 </r>
       <r>     1.5061     0.0000     6.0000 </r>
       <r>     1.5478     0.0000     6.0000 </r>
       <r>     1.5896     0.0000     6.0000 </r>
       <r>     1.6313     0.0000     6.0000 </r>
       <r>     1.6730     0.0000     6.0000 </r>
       <r>     1.7148     0.0000     6.0000 </r>
       <r>     1.7565     0.0000     6.0000 </r>
       <r>     1.7983     0.0000     6.0000 </r>
       <r>     1.8400     0.0000     6.0000 </r>
       <r>     1.8817     0.0000     6.0000 </r>
       <r>     1.9235     0.0000     6.0000 </r>
       <r>     1.9652     0.0000     6.0000 </r>
       <r>     2.0070     0.0000     6.0000 </r>
       <r>     2.0487     0.0000     6.0000 </r>
       <r>     2.0905     0.0000     6.0000 </r>
       <r>     2.1322     0.0000     6.0000 </r>
       <r>     2.1739     0.0000     6.0000 </r>
       <r>     2.2157     0.0000     6.0000 </r>
       <r>     2.2574     0.0000     6.0000 </r>
       <r>     2.2992     0.0000     6.0000 </r>
       <r>     2.3409     0.0000     6.0000 </r>
       <r>     2.3826     0.0000     6.0000 </r>
       <r>     2.4244     0.0000     6.0000 </r>
       <r>     2.4661     0.0000     6.0000 </r>
       <r>     2.5079     0.0000     6.0000 </r>
       <r>     2.5496     0.0000     6.0000 </r>
      </set>
      <set comment="spin 2">
       <r>    -9.9727     0.0000     0.0000 </r>
       <r>    -9.9309     0.0000     0.0000 </r>
       <r>    -9.8892     0.0000     0.0000 </r>
       <r>    -9.8475     0.0000     0.0000 </r>
       <r>    -9.8057     0.0000     0.0000 </r>
       <r>    -9.7640     0.0000     0.0000 </r>
       <r>    -9.7222     0.0000     0.0000 </r>
       <r>    -9.6805     0.0000     0.0000 </r>
       <r>    -9.6388     0.0000     0.0000 </r>
       <r>    -9.5970     0.0000     0.0000 </r>
       <r>    -9.5553     0.0000     0.0000 </r>
       <r>    -9.5135     0.0000     0.0000 </r>
       <r>    -9.4718     0.0000     0.0000 </r>
       <r>    -9.4300     0.0000     0.0000 </r>
       <r>    -9.3883     0.0000     0.0000 </r>
       <r>    -9.3466     0.0000     0.0000 </r>
       <r>    -9.3048     0.0000     0.0000 </r>
       <r>    -9.2631     0.0000     0.0000 </r>
       <r>    -9.2213     0.0000     0.0000 </r>
       <r>    -9.1796     0.0000     0.0000 </r>
       <r>    -9.1379     0.0000     0.0000 </r>
       <r>    -9.0961     0.0000     0.0000 </r>
       <r>    -9.0544     0.0000     0.0000 </r>
       <r>    -9.0126     0.0000     0.0000 </r>
       <r>    -8.9709     0.0000     0.0000 </r>
       <r>    -8.9292     0.0000     0.0000 </r>
       <r>    -8.8874     0.0000     0.0000 </r>
       <r>    -8.8457     0.0000     0.0000 </r>
       <r>    -8.8039     0.0000     0.0000 </r>
       <r>    -8.7622     0.0000     0.0000 </r>
       <r>    -8.7205     0.0000     0.0000 </r>
       <r>    -8.6787     0.0000     0.0000 </r>
       <r>    -8.6370     0.0000     0.0000 </r>
       <r>    -8.5952     0.0000     0.0000 </r>
       <r>    -8.5535     0.0000     0.0000 </r>
       <r>    -8.5117     0.0000     0.0000 </r>
       <r>    -8.4700     0.0000     0.0000 </r>
       <r>    -8.4283     0.0000     0.0000 </r>
       <r>    -8.3865     0.0000     0.0000 </r>
       <r>    -8.3448     0.0000     0.0000 </r>
       <r>    -8.3030     0.0000     0.0000 </r>
       <r>    -8.2613     0.0000     0.0000 </r>
       <r>    -8.2196     0.0000     0.0000 </r>
       <r>    -8.1778     0.0000     0.0000 </r>
       <r>    -8.1361     0.0000     0.0000 </r>
       <r>    -8.0943     0.0000     0.0000 </r>
       <r>    -8.0526     0.0000     0.0000 </r>
       <r>    -8.0109     0.0000     0.0000 </r>
       <r>    -7.9691     0.0000     0.0000 </r>
       <r>    -7.9274     0.0000     0.0000 </r>
       <r>    -7.8856     0.0000     0.0000 </r>
       <r>    -7.8439     0.0001     0.0000 </r>
       <r>    -7.8022     0.0002     0.0000 </r>
       <r>    -7.7604     0.0008     0.0000 </r>
       <r>    -7.7187     0.0026     0.0002 </r>
       <r>    -7.6769     0.0076     0.0005 </r>
       <r>    -7.6352     0.0200     0.0013 </r>
       <r>    -7.5934     0.0483     0.0033 </r>
       <r>    -7.5517     0.1070     0.0078 </r>
       <r>    -7.5100     0.2173     0.0169 </r>
       <r>    -7.4682     0.4049     0.0338 </r>
       <r>    -7.4265     0.6918     0.0626 </r>
       <r>    -7.3847     1.0841     0.1079 </r>
       <r>    -7.3430     1.5581     0.1729 </r>
       <r>    -7.3013     2.0538     0.2587 </r>
       <r>    -7.2595     2.4828     0.3623 </r>
       <r>    -7.2178     2.7529     0.4772 </r>
       <r>    -7.1760     2.7994     0.5941 </r>
       <r>    -7.1343     2.6108     0.7030 </r>
       <r>    -7.0926     2.2332     0.7962 </r>
       <r>    -7.0508     1.7520     0.8694 </r>
       <r>    -7.0091     1.2605     0.9220 </r>
       <r>    -6.9673     0.8318     0.9567 </r>
       <r>    -6.9256     0.5034     0.9777 </r>
       <r>    -6.8838     0.2794     0.9894 </r>
       <r>    -6.8421     0.1423     0.9953 </r>
       <r>    -6.8004     0.0664     0.9981 </r>
       <r>    -6.7586     0.0284     0.9993 </r>
       <r>    -6.7169     0.0112     0.9998 </r>
       <r>    -6.6751     0.0040     0.9999 </r>
       <r>    -6.6334     0.0013     1.0000 </r>
       <r>    -6.5917     0.0004     1.0000 </r>
       <r>    -6.5499     0.0001     1.0000 </r>
       <r>    -6.5082     0.0000     1.0000 </r>
       <r>    -6.4664     0.0000     1.0000 </r>
       <r>    -6.4247     0.0000     1.0000 </r>
       <r>    -6.3830     0.0000     1.0000 </r>
       <r>    -6.3412     0.0000     1.0000 </r>
       <r>    -6.2995     0.0000     1.0000 </r>
       <r>    -6.2577     0.0000     1.0000 </r>
       <r>    -6.2160     0.0000     1.0000 </r>
       <r>    -6.1743     0.0000     1.0000 </r>
       <r>    -6.1325     0.0000     1.0000 </r>
       <r>    -6.0908     0.0000     1.0000 </r>
       <r>    -6.0490     0.0000     1.0000 </r>
       <r>    -6.0073     0.0000     1.0000 </r>
       <r>    -5.9655     0.0000     1.0000 </r>
       <r>    -5.9238     0.0000     1.0000 </r>
       <r>    -5.8821     0.0000     1.0000 </r>
       <r>    -5.8403     0.0000     1.0000 </r>
       <r>    -5.7986     0.0000     1.0000 </r>
       <r>    -5.7568     0.0000     1.0000 </r>
       <r>    -5.7151     0.0000     1.0000 </r>
       <r>    -5.6734     0.0000     1.0000 </r>
       <r>    -5.6316     0.0000     1.0000 </r>
       <r>    -5.5899     0.0000     1.0000 </r>
       <r>    -5.5481     0.0000     1.0000 </r>
       <r>    -5.5064     0.0000     1.0000 </r>
       <r>    -5.4647     0.0000     1.0000 </r>
       <r>    -5.4229     0.0000     1.0000 </r>
       <r>    -5.3812     0.0000     1.0000 </r>
       <r>    -5.3394     0.0000     1.0000 </r>
       <r>    -5.2977     0.0000     1.0000 </r>
       <r>    -5.2560     0.0000     1.0000 </r>
       <r>    -5.2142     0.0000     1.0000 </r>
       <r>    -5.1725     0.0000     1.0000 </r>
       <r>    -5.1307     0.0000     1.0000 </r>
       <r>    -5.0890     0.0000     1.0000 </r>
       <r>    -5.0472     0.0000     1.0000 </r>
       <r>    -5.0055     0.0000     1.0000 </r>
       <r>    -4.9638     0.0000     1.0000 </r>
       <r>    -4.9220     0.0000     1.0000 </r>
       <r>    -4.8803     0.0000     1.0000 </r>
       <r>    -4.8385     0.0000     1.0000 </r>
       <r>    -4.7968     0.0000     1.0000 </r>
       <r>    -4.7551     0.0000     1.0000 </r>
       <r>    -4.7133     0.0000     1.0000 </r>
       <r>    -4.6716     0.0000     1.0000 </r>
       <r>    -4.6298     0.0000     1.0000 </r>
       <r>    -4.5881     0.0000     1.0000 </r>
       <r>    -4.5464     0.0000     1.0000 </r>
       <r>    -4.5046     0.0000     1.0000 </r>
       <r>    -4.4629     0.0000     1.0000 </r>
       <r>    -4.4211     0.0000     1.0000 </r>
       <r>    -4.3794     0.0000     1.0000 </r>
       <r>    -4.3377     0.0000     1.0000 </r>
       <r>    -4.2959     0.0000     1.0000 </r>
       <r>    -4.2542     0.0000     1.0000 </r>
       <r>    -4.2124     0.0000     1.0000 </r>
       <r>    -4.1707     0.0000     1.0000 </r>
       <r>    -4.1289     0.0000     1.0000 </r>
       <r>    -4.0872     0.0000     1.0000 </r>
       <r>    -4.0455     0.0000     1.0000 </r>
       <r>    -4.0037     0.0000     1.0000 </r>
       <r>    -3.9620     0.0000     1.0000 </r>
       <r>    -3.9202     0.0000     1.0000 </r>
       <r>    -3.8785     0.0000     1.0000 </r>
       <r>    -3.8368     0.0000     1.0000 </r>
       <r>    -3.7950     0.0000     1.0000 </r>
       <r>    -3.7533     0.0000     1.0000 </r>
       <r>    -3.7115     0.0000     1.0000 </r>
       <r>    -3.6698     0.0000     1.0000 </r>
       <r>    -3.6281     0.0000     1.0000 </r>
       <r>    -3.5863     0.0000     1.0000 </r>
       <r>    -3.5446     0.0000     1.0000 </r>
       <r>    -3.5028     0.0000     1.0000 </r>
       <r>    -3.4611     0.0000     1.0000 </r>
       <r>    -3.4194     0.0000     1.0000 </r>
       <r>    -3.3776     0.0000     1.0000 </r>
       <r>    -3.3359     0.0000     1.0000 </r>
       <r>    -3.2941     0.0000     1.0000 </r>
       <r>    -3.2524     0.0000     1.0000 </r>
       <r>    -3.2106     0.0000     1.0000 </r>
       <r>    -3.1689     0.0000     1.0000 </r>
       <r>    -3.1272     0.0000     1.0000 </r>
       <r>    -3.0854     0.0000     1.0000 </r>
       <r>    -3.0437     0.0000     1.0000 </r>
       <r>    -3.0019     0.0000     1.0000 </r>
       <r>    -2.9602     0.0000     1.0000 </r>
       <r>    -2.9185     0.0000     1.0000 </r>
       <r>    -2.8767     0.0000     1.0000 </r>
       <r>    -2.8350     0.0000     1.0000 </r>
       <r>    -2.7932     0.0002     1.0000 </r>
       <r>    -2.7515     0.0006     1.0000 </r>
       <r>    -2.7098     0.0020     1.0001 </r>
       <r>    -2.6680     0.0064     1.0004 </r>
       <r>    -2.6263     0.0186     1.0012 </r>
       <r>    -2.5845     0.0499     1.0032 </r>
       <r>    -2.5428     0.1225     1.0084 </r>
       <r>    -2.5011     0.2760     1.0199 </r>
       <r>    -2.4593     0.5703     1.0437 </r>
       <r>    -2.4176     1.0809     1.0888 </r>
       <r>    -2.3758     1.8788     1.1672 </r>
       <r>    -2.3341     2.9952     1.2922 </r>
       <r>    -2.2923     4.3793     1.4750 </r>
       <r>    -2.2506     5.8726     1.7202 </r>
       <r>    -2.2089     7.2225     2.0216 </r>
       <r>    -2.1671     8.1468     2.3617 </r>
       <r>    -2.1254     8.4280     2.7135 </r>
       <r>    -2.0836     7.9966     3.0473 </r>
       <r>    -2.0419     6.9586     3.3377 </r>
       <r>    -2.0002     5.5537     3.5695 </r>
       <r>    -1.9584     4.0652     3.7392 </r>
       <r>    -1.9167     2.7291     3.8531 </r>
       <r>    -1.8749     1.6803     3.9233 </r>
       <r>    -1.8332     0.9489     3.9629 </r>
       <r>    -1.7915     0.4914     3.9834 </r>
       <r>    -1.7497     0.2334     3.9931 </r>
       <r>    -1.7080     0.1017     3.9974 </r>
       <r>    -1.6662     0.0406     3.9991 </r>
       <r>    -1.6245     0.0149     3.9997 </r>
       <r>    -1.5828     0.0050     3.9999 </r>
       <r>    -1.5410     0.0015     4.0000 </r>
       <r>    -1.4993     0.0004     4.0000 </r>
       <r>    -1.4575     0.0001     4.0000 </r>
       <r>    -1.4158     0.0000     4.0000 </r>
       <r>    -1.3740     0.0000     4.0000 </r>
       <r>    -1.3323     0.0000     4.0000 </r>
       <r>    -1.2906     0.0000     4.0000 </r>
       <r>    -1.2488     0.0000     4.0000 </r>
       <r>    -1.2071     0.0000     4.0000 </r>
       <r>    -1.1653     0.0000     4.0000 </r>
       <r>    -1.1236     0.0000     4.0000 </r>
       <r>    -1.0819     0.0000     4.0000 </r>
       <r>    -1.0401     0.0000     4.0000 </r>
       <r>    -0.9984     0.0000     4.0000 </r>
       <r>    -0.9566     0.0000     4.0000 </r>
       <r>    -0.9149     0.0000     4.0000 </r>
       <r>    -0.8732     0.0000     4.0000 </r>
       <r>    -0.8314     0.0000     4.0000 </r>
       <r>    -0.7897     0.0000     4.0000 </r>
       <r>    -0.7479     0.0001     4.0000 </r>
       <r>    -0.7062     0.0003     4.0000 </r>
       <r>    -0.6644     0.0010     4.0001 </r>
       <r>    -0.6227     0.0032     4.0002 </r>
       <r>    -0.5810     0.0090     4.0006 </r>
       <r>    -0.5392     0.0233     4.0015 </r>
       <r>    -0.4975     0.0555     4.0039 </r>
       <r>    -0.4557     0.1211     4.0089 </r>
       <r>    -0.4140     0.2424     4.0190 </r>
       <r>    -0.3723     0.4452     4.0376 </r>
       <r>    -0.3305     0.7499     4.0689 </r>
       <r>    -0.2888     1.1583     4.1173 </r>
       <r>    -0.2470     1.6410     4.1858 </r>
       <r>    -0.2053     2.1322     4.2748 </r>
       <r>    -0.1636     2.5409     4.3808 </r>
       <r>    -0.1218     2.7771     4.4967 </r>
       <r>    -0.0801     2.7838     4.6129 </r>
       <r>    -0.0383     2.5595     4.7198 </r>
       <r>     0.0034     2.1589     4.8099 </r>
       <r>     0.0451     1.6717     4.8797 </r>
       <r>     0.0869     1.1920     4.9294 </r>
       <r>     0.1286     0.7920     4.9625 </r>
       <r>     0.1704     0.5122     4.9839 </r>
       <r>     0.2121     0.3673     4.9992 </r>
       <r>     0.2539     0.3596     5.0142 </r>
       <r>     0.2956     0.4889     5.0346 </r>
       <r>     0.3373     0.7539     5.0661 </r>
       <r>     0.3791     1.1418     5.1137 </r>
       <r>     0.4208     1.6155     5.1812 </r>
       <r>     0.4626     2.1063     5.2691 </r>
       <r>     0.5043     2.5216     5.3743 </r>
       <r>     0.5460     2.7695     5.4899 </r>
       <r>     0.5878     2.7900     5.6064 </r>
       <r>     0.6295     2.5778     5.7140 </r>
       <r>     0.6713     2.1844     5.8052 </r>
       <r>     0.7130     1.6977     5.8760 </r>
       <r>     0.7547     1.2101     5.9265 </r>
       <r>     0.7965     0.7911     5.9596 </r>
       <r>     0.8382     0.4743     5.9794 </r>
       <r>     0.8800     0.2608     5.9903 </r>
       <r>     0.9217     0.1315     5.9957 </r>
       <r>     0.9634     0.0608     5.9983 </r>
       <r>     1.0052     0.0258     5.9994 </r>
       <r>     1.0469     0.0100     5.9998 </r>
       <r>     1.0887     0.0036     5.9999 </r>
       <r>     1.1304     0.0012     6.0000 </r>
       <r>     1.1722     0.0004     6.0000 </r>
       <r>     1.2139     0.0001     6.0000 </r>
       <r>     1.2556     0.0000     6.0000 </r>
       <r>     1.2974     0.0000     6.0000 </r>
       <r>     1.3391     0.0000     6.0000 </r>
       <r>     1.3809     0.0000     6.0000 </r>
       <r>     1.4226     0.0000     6.0000 </r>
       <r>     1.4643     0.0000     6.0000 </r>
       <r>     1.5061     0.0000     6.0000 </r>
       <r>     1.5478     0.0000     6.0000 </r>
       <r>     1.5896     0.0000     6.0000 </r>
       <r>     1.6313     0.0000     6.0000 </r>
       <r>     1.6730     0.0000     6.0000 </r>
       <r>     1.7148     0.0000     6.0000 </r>
       <r>     1.7565     0.0000     6.0000 </r>
       <r>     1.7983     0.0000     6.0000 </r>
       <r>     1.8400     0.0000     6.0000 </r>
       <r>     1.8817     0.0000     6.0000 </r>
       <r>     1.9235     0.0000     6.0000 </r>
       <r>     1.9652     0.0000     6.0000 </r>
       <r>     2.0070     0.0000     6.0000 </r>
       <r>     2.0487     0.0000     6.0000 </r>
       <r>     2.0905     0.0000     6.0000 </r>
       <r>     2.1322     0.0000     6.0000 </r>
       <r>     2.1739     0.0000     6.0000 </r>
       <r>     2.2157     0.0000     6.0000 </r>
       <r>     2.2574     0.0000     6.0000 </r>
       <r>     2.2992     0.0000     6.0000 </r>
       <r>     2.3409     0.0000     6.0000 </r>
       <r>     2.3826     0.0000     6.0000 </r>
       <r>     2.4244     0.0000     6.0000 </r>
       <r>     2.4661     0.0000     6.0000 </r>
       <r>     2.5079     0.0000     6.0000 </r>
       <r>     2.5496     0.0000     6.0000 </r>
      </set>
     </set>
    </array>
   </total>
  </dos>
 </calculation>
 <structure name="finalpos" >
  <crystal>
   <varray name="basis" >
    <v>      15.00000000       0.00000000       0.00000000 </v>
    <v>       0.00000000      15.00000000       0.00000000 </v>
    <v>       0.00000000       0.00000000      15.00000000 </v>
   </varray>
   <i name="volume">   3375.00000000 </i>
   <varray name="rec_basis" >
    <v>       0.06666667       0.00000000       0.00000000 </v>
    <v>       0.00000000       0.06666667       0.00000000 </v>
    <v>       0.00000000       0.00000000       0.06666667 </v>
   </varray>
  </crystal>
  <varray name="positions" >
   <v>       0.00000000       0.00000000       0.00000000 </v>
  </varray>
 </structure>
</modeling>
