Al atom                                 
           1
    15.000000    0.000000    0.000000
     0.000000   15.000000    0.000000
     0.000000    0.000000   15.000000
   Al
     1
Direct configuration=     1
   0.00000000  0.00000000  0.00000000
